ITEM: TIMESTEP
0
ITEM: NUMBER OF ATOMS
125
ITEM: BOX BOUNDS pp pp pp
4.2487739348810276e+00 2.1251226065118665e+01
4.2487739348810276e+00 2.1251226065118665e+01
4.2487739348810276e+00 2.1251226065118665e+01
ITEM: ATOMS x y z fx fy fz
13.5484 9.93797 5.04991 0.25126 1.64023 0.515635
7.66844 7.50578 6.16723 1.20134 0.467495 -0.256955
7.37948 7.19794 10.2533 -0.258066 -0.335766 -0.352755
10.5601 5.63821 5.8864 -0.0905747 0.0070102 0.0335939
13.5399 4.71655 7.05323 0.0963634 0.0760101 -0.0494894
17.2532 5.42107 8.38366 -0.936574 -0.258259 -1.19358
4.91162 6.83379 6.72341 -1.28921 0.231142 -0.620581
8.62949 11.591 6.17986 -0.182541 -0.207552 0.135053
4.74677 10.282 6.76542 0.0908731 -0.283984 0.0905701
10.4377 8.75014 7.37662 0.0736183 0.123496 0.0259591
16.0792 8.01767 6.02698 -0.0282096 -0.11331 0.566753
18.5734 10.2439 7.22701 0.449644 -0.28782 0.127525
20.5766 11.568 10.5736 -0.537217 -0.448049 -0.0721334
15.2412 10.8855 10.6213 0.939627 0.192949 -0.0494426
5.03616 5.25612 9.20846 -0.0168649 -0.855856 0.702815
4.56073 8.34775 9.86389 -0.478768 0.366594 -0.106212
10.3512 7.24589 10.5148 0.695513 0.0913125 -0.164819
15.7119 11.2016 7.46482 -0.652137 0.171188 -0.179021
14.3793 8.14827 8.9282 0.0555999 0.0422783 -0.144161
12.7946 9.39133 11.4286 -0.538708 -0.525259 0.544818
15.4814 7.63079 12.3501 -0.0573283 -0.0416729 -0.106895
18.2705 9.00009 11.3664 0.0525523 0.163634 -0.0123211
19.0667 5.95025 10.5564 0.987939 0.218383 1.00028
7.16152 10.2307 8.86836 0.138573 -0.0698044 0.103024
9.90597 10.7065 11.1515 -0.0881521 -0.0934514 0.0217747
12.5498 11.216 8.89547 -0.125833 0.0892693 -0.297723
18.4982 11.6709 4.38348 -0.254987 0.130275 -0.325369
7.85249 6.75333 15.8336 0.033789 0.241393 0.0314308
17.392 5.3335 18.2864 -0.186029 -0.0527526 -0.261255
10.5934 8.02514 13.5448 -0.0755997 0.125913 0.295211
15.2408 5.72764 15.146 0.320778 -0.208898 -0.206324
13.3125 4.7771 17.3413 -0.338948 0.200042 0.457871
9.25242 10.1102 16.0824 -0.175161 -0.59494 -0.707717
5.90075 10.3592 15.3991 0.777903 -0.0640095 0.574375
15.6239 12.4855 15.2098 0.734663 -0.538875 -0.857624
11.9556 11.1315 14.0946 -0.171766 -0.182455 0.417274
15.5104 10.1511 17.6073 -0.245583 0.80154 -0.659536
14.308 8.6681 15.2463 -1.64575 0.225231 -0.27365
20.6232 11.0145 13.6244 -0.671941 0.121725 -0.22574
17.2034 8.59838 14.9646 1.20599 -0.084604 -0.0830344
8.94651 7.92839 18.5995 -0.0241306 0.00766598 0.165681
6.01234 6.01079 20.2801 -0.614237 0.697714 -0.763407
12.4115 8.40636 18.2892 -0.0152835 0.13046 -0.0903818
5.47069 4.81076 14.9582 -0.22797 0.0756533 0.25681
13.1276 7.22347 4.25135 -0.202791 -1.51136 -0.310186
19.1376 5.42265 20.8985 0.0481173 0.245301 -0.0762498
19.6659 6.50222 16.3108 0.069939 0.00400534 -0.0319051
20.7044 11.6514 18.013 0.339017 0.193891 0.0978138
8.20931 11.0903 18.8059 -0.31338 0.43331 0.0802347
5.58083 8.46677 17.9592 0.0161069 -0.0262776 0.182826
8.66378 4.97547 13.3507 -0.0336888 0.29399 -0.57636
10.9533 12.1554 17.55 -0.229334 -0.0155527 0.3197
10.3243 9.94623 20.9031 0.137317 -0.102578 0.0794296
16.285 8.98119 20.1558 0.334636 -0.273731 0.643106
7.37278 8.8464 12.8525 0.142635 0.173221 0.316887
18.6369 9.34984 17.868 -0.15136 -0.322579 -0.105184
20.3277 9.16245 20.5821 0.121173 -0.147816 0.0928117
6.44174 9.91436 21.1035 0.0734452 -0.14886 0.0179356
17.6317 4.79685 13.2531 -0.0820614 0.437317 -0.495395
5.81372 20.479 12.1353 -0.111731 -0.0136163 0.166566
10.5177 15.6416 6.67046 -0.187354 0.0553005 -0.434663
11.9405 18.9221 7.65119 1.17048 -0.412966 -0.124625
13.0253 13.6198 6.45175 0.0685797 -1.03349 -0.426869
16.7674 15.0774 6.62335 -0.0685388 -0.0732231 0.538916
13.108 12.8607 11.8308 -0.108133 0.339554 -0.260109
19.9792 16.2879 5.60093 -0.2325 0.085458 0.0239722
5.7068 16.3549 7.25273 0.157123 -0.0496473 0.140408
7.38288 15.6931 4.34898 0.109457 0.0754175 -0.0874069
20.7123 18.6948 8.35876 0.156627 -0.214497 0.199758
7.39021 4.38355 5.26997 0.380729 -0.522985 0.722153
9.53473 14.0122 10.8274 0.0672712 0.108465 0.0600055
14.6474 18.6308 5.76967 -0.327157 0.0143948 0.248348
17.6228 19.1328 6.21247 0.463556 -0.0511021 0.255384
20.4562 20.8057 6.14868 0.287926 0.0777643 -0.0371352
5.59334 13.2939 9.22562 0.491398 0.540285 -0.400305
5.31897 16.8156 10.6143 0.468547 0.115822 0.228373
9.00434 16.878 12.6624 -0.376289 -0.22236 -0.430471
9.09783 17.0296 9.06321 -0.0149159 0.0329468 0.37017
20.4144 13.095 6.4769 0.0212669 0.360339 0.138122
12.2508 16.1561 10.9842 -0.67243 0.111343 -0.177185
13.275 16.1278 8.00269 -1.33462 -0.389501 -0.363859
19.6885 15.7572 9.45615 -0.42219 -0.219908 -0.222717
16.4825 14.4131 10.5325 -0.282338 0.0330233 -0.2688
17.8308 19.3503 9.59552 0.250814 0.288605 0.193405
7.04067 19.5074 9.50434 -0.121918 -0.144255 -0.215214
9.21254 19.7715 7.27507 -0.992691 0.359399 -0.275508
11.101 19.3844 10.6441 -0.217885 -0.144572 0.201605
15.6691 17.3087 8.85787 1.6343 0.674264 0.566393
16.3408 18.053 12.6899 0.316739 0.360237 -0.097782
10.2971 18.5011 4.30372 0.0670054 -0.112164 0.28928
13.3212 16.113 4.49767 -0.0775723 -0.0883234 -0.225753
6.03952 16.9202 14.6287 0.287015 -0.888203 -0.66105
7.9171 13.1363 15.5672 -0.00704891 -0.188539 -0.150049
5.3832 14.9669 17.2467 -0.101364 -0.225195 0.0327386
14.5681 16.459 18.0393 -0.445163 0.276014 0.111573
11.2653 14.8011 14.4394 0.0248023 -0.164299 -0.105008
13.4308 13.6437 16.7451 -0.313417 0.73099 0.327766
20.7875 20.9612 18.4566 0.0922253 0.00228066 -0.0795898
16.6369 16.1487 15.3393 0.0611878 0.135373 -0.0586799
19.7265 17.6374 13.3832 0.0302615 -0.0376765 -0.029447
7.64122 19.4589 14.8683 0.104371 -0.234917 -0.223253
10.9767 18.0419 14.6463 0.235454 0.287777 0.297432
14.4698 15.6152 12.9485 0.175075 -0.439114 0.505745
13.7317 19.0603 15.9486 0.181089 -0.330329 -0.0887538
19.2826 18.7419 20.4637 0.478592 0.181488 0.427272
21.1078 18.1832 16.4898 -0.566651 0.432412 0.577447
18.1923 19.771 15.399 0.080956 -0.453493 0.579536
8.62138 14.6831 18.1588 -0.667967 -0.0260325 0.162356
11.4574 15.0222 18.9755 1.17644 0.58905 -0.249687
13.0346 20.7716 12.9532 0.00684841 -0.0322553 0.223691
17.4381 17.9248 18.2367 -0.293057 -0.228447 -0.51934
16.5178 14.1339 17.7664 0.418345 -0.435613 0.229266
16.9066 15.5122 20.6324 -0.0452911 0.938794 -0.238579
19.702 15.314 19.4427 0.443305 -0.00263627 -0.230092
6.9496 17.5492 18.1831 0.136368 0.236811 0.00301235
10.7078 18.1219 18.1668 0.0492917 0.0228109 -0.310504
7.27616 20.9096 17.5775 -0.180425 0.152348 0.388191
13.7564 19.1651 19.7092 -0.129848 -0.049098 -0.161211
10.1268 20.9649 15.9269 0.494664 0.0923759 0.341412
5.61195 18.9755 20.9643 -0.125092 -0.0413341 -0.0386634
5.28999 13.2742 20.5154 -0.0455757 -0.0867436 -0.0234816
10.1123 13.5211 21.1778 -0.227207 -0.298616 0.26946
15.2452 13.0322 20.6526 -0.461974 -0.641966 0.094892
6.56746 13.8218 12.6396 -0.0296607 0.0836486 -0.110616
18.6399 14.4931 12.7903 0.151673 0.0787546 0.16997
