ITEM: TIMESTEP
0
ITEM: NUMBER OF ATOMS
125
ITEM: BOX BOUNDS pp pp pp
4.2487739348810276e+00 2.1251226065118665e+01
4.2487739348810276e+00 2.1251226065118665e+01
4.2487739348810276e+00 2.1251226065118665e+01
ITEM: ATOMS x y z fx fy fz
6.05584 7.13188 5.1375 0.0977284 -1.06803 0.377416
7.29614 6.54416 8.01325 0.207957 0.264875 0.303857
10.0174 6.61072 6.02249 0.0354817 1.09378 0.0252041
12.9719 6.91381 6.98973 0.446614 -0.0363912 0.298237
16.6963 7.31388 4.66833 -0.292909 -0.827967 0.473564
16.6174 7.47178 8.26855 -0.198042 -0.908062 -0.205267
18.835 5.69289 7.00426 0.243436 0.0785932 0.320689
20.5108 4.98778 4.45578 -0.533661 1.08062 -0.443212
4.98248 9.7674 4.43181 -0.297773 0.852866 -0.343672
7.82752 9.85421 7.2903 0.0309618 0.0469453 -0.175341
10.9891 10.1631 5.52375 -0.231676 0.247226 0.567573
14.1978 9.2919 4.89488 -0.518674 -0.430593 0.198234
13.0733 12.114 8.48457 -0.0902381 -0.816786 -1.30084
19.0918 8.96377 6.01151 0.694497 -0.129217 0.787969
20.2486 12.2151 5.88072 -0.48049 -0.447717 0.78296
5.26821 7.32763 10.5708 -0.106216 -0.180588 -0.157635
6.91426 4.77847 12.4376 -0.005192 -0.113053 -0.32347
9.85026 8.22406 9.39941 0.241055 -0.54219 -0.144097
11.6206 7.6082 12.6839 0.30569 -0.172272 -0.281271
14.3946 6.41931 10.3069 -0.346285 0.0859253 0.163402
19.224 7.96792 10.0691 0.433116 0.00904291 -0.353061
4.64261 10.0755 8.6865 -0.00782957 0.0988721 -0.042686
6.73004 12.1027 10.9881 0.0195836 -0.314226 0.00812052
9.69975 11.1936 9.95772 0.16313 0.559882 0.0408254
15.6312 12.2041 10.7772 0.490607 0.436677 0.854739
13.3311 9.97847 10.8153 -0.299838 -1.08815 -0.289472
15.8099 10.2588 8.51683 0.079267 0.28516 -0.547596
18.9818 12.0927 9.17163 -0.202416 -0.0120565 -0.11407
17.2257 8.8415 12.1295 0.152583 0.466424 -0.193015
20.8119 10.8476 12.1118 -0.198965 0.622841 -0.692648
8.16486 6.04614 15.3493 -0.0640092 -0.06144 0.315415
6.82979 7.95176 13.1112 0.109473 0.496815 0.557125
12.0955 4.57341 15.3267 0.255255 0.0721682 -0.0167265
16.1068 5.13306 15.917 -1.03024 1.0589 0.545449
15.0725 8.16893 14.0308 -1.12388 0.350248 0.791865
16.255 5.6326 12.8561 0.479061 -0.51874 -0.604288
19.0047 5.56398 15.2286 0.607822 0.258974 -0.498475
20.467 8.30819 13.6496 -0.0811085 -0.664326 0.371664
5.60063 10.8466 14.786 0.33209 -0.0488447 0.0695559
11.6195 9.46024 15.2398 -0.0482309 -0.628434 0.710059
8.93568 9.5055 16.8232 -0.55024 -0.110992 0.280012
13.4742 11.8562 16.6366 0.293052 0.0761468 0.322226
12.9925 11.3661 13.4583 0.272207 0.471221 -0.175078
18.4419 12.6996 14.4324 0.0584685 -0.025624 0.332315
17.6049 9.30092 16.7084 -0.616798 -0.159953 -0.491239
5.44503 5.56904 18.5571 0.0127537 -0.0712054 0.1134
5.69178 8.44848 17.2773 0.238055 0.197223 -0.268859
7.87757 8.10275 19.8362 0.189977 0.110171 -0.278914
10.1734 5.20922 20.0385 -0.30949 -0.0709319 -0.0328502
12.4855 6.13238 18.1755 0.279087 0.29861 -0.584909
13.3853 5.18704 20.9937 0.466048 0.441433 0.494892
17.3032 6.05222 18.9274 0.0339694 -0.173953 -0.481068
19.1656 8.44876 19.2866 0.953711 0.0830459 0.291096
6.35831 12.7251 17.9128 -0.037503 -0.0212764 -0.135911
7.70153 11.6234 20.9407 0.193795 -0.0800998 -0.15253
11.033 9.02845 19.7044 0.168028 -0.15204 -0.576556
14.1538 9.14299 18.2527 0.127964 -0.0927519 0.117261
14.6557 12.1431 20.8504 -0.852199 0.371906 -0.811449
20.3777 10.7163 17.1202 0.306266 0.452368 -0.142546
17.9168 12.12 18.6286 -0.146196 0.157685 -0.588155
17.2402 10.2881 21.0069 -0.23356 0.654385 0.0287298
6.52037 13.7891 6.21466 -0.385451 -0.0349857 0.139685
12.3921 14.9983 7.27306 -0.088014 -0.187544 0.171589
9.56108 13.8029 5.70256 0.849969 -0.181634 0.456242
16.2078 12.807 6.4859 0.150752 0.080434 0.78016
13.7422 15.3217 4.44145 0.121696 0.188577 -0.156851
17.6723 16.9505 6.14568 -0.377601 -0.276627 -0.17815
20.7229 15.3483 6.74645 0.0394706 -0.187308 -0.235678
7.34182 17.3518 6.35092 0.208849 0.127927 -0.710716
6.62056 20.5352 7.4703 -1.21589 -0.606797 0.714815
10.5474 17.5136 7.70118 0.102978 0.735342 -0.493555
8.95593 20.8452 5.85366 0.418297 -0.818802 -0.932103
12.1493 20.3285 6.31289 0.275835 -0.174946 0.0160036
10.3694 17.4372 4.44769 0.116629 0.223219 0.197905
15.0977 18.7661 4.76285 -0.207664 -0.0818387 -0.0348788
14.4272 17.4965 7.73425 0.063822 0.018001 -0.118203
15.1511 20.7444 8.11313 0.0415088 0.258747 -0.114225
20.1208 18.3106 7.41563 0.40042 0.825929 0.188882
17.8462 20.4706 4.94088 -0.350768 -0.437441 -0.131392
5.7065 14.95 11.7575 0.108168 0.282896 0.128091
6.15349 16.5937 9.00174 -0.371805 -0.062113 0.574091
9.45373 16.0218 10.0089 -0.29783 -0.622686 0.784622
9.99343 13.6369 12.5986 -0.0815037 -0.140939 -0.271445
16.1296 15.0813 9.47038 -0.173839 0.120785 -0.272307
12.7916 13.9811 10.6661 -0.27287 0.897748 0.618542
19.239 15.9395 9.62094 0.281536 0.0664164 -0.0297822
17.697 15.6556 12.4497 0.221651 -0.697748 0.050777
5.00753 18.1796 12.5561 -0.349877 0.160393 -0.111644
10.2012 20.6058 8.90229 -0.131038 0.109112 0.353475
12.6666 17.5996 10.5471 -0.0731513 -0.666407 -0.267279
8.78161 18.8635 11.648 -0.505939 -0.507891 -1.79993
12.2677 20.239 11.9221 -0.0336368 0.656482 0.268879
15.9509 18.496 10.5845 -0.0233449 -0.109874 -0.00604183
18.262 20.5724 9.368 0.0665916 -0.0932238 0.200145
20.5033 21.2314 12.0639 -0.201126 0.107972 -0.0614874
8.18519 14.5499 15.1023 -0.825494 -0.864063 -0.178185
9.3571 16.6453 16.9799 0.535851 0.444819 0.223066
10.9926 13.727 16.1513 0.0742033 -0.0130142 0.372596
13.028 14.4965 13.804 0.133923 0.172229 0.353936
16.9395 15.516 15.7658 0.605992 -0.261096 0.417607
15.0999 16.8479 13.7288 -0.504487 0.837294 -0.338343
7.57354 17.402 14.1851 -0.305354 0.388375 0.321777
5.08159 21.0824 14.9165 -0.00898724 -0.232219 0.52967
10.864 17.0778 13.4263 -0.415834 -0.593427 -0.900382
8.59392 19.8292 16.9845 -0.155913 0.159065 -0.106263
12.2574 18.0123 15.7787 0.629493 0.625007 0.949171
9.64713 20.3885 13.8782 0.163572 0.680241 1.21214
16.4892 19.2611 15.7755 0.275475 -1.20481 0.0787407
20.4885 17.3285 15.8298 -0.0392557 0.311165 -0.0189158
18.0814 18.7146 12.9948 0.485631 0.427121 0.119107
6.34733 16.4304 17.5902 -0.621439 -0.383739 0.0620274
8.09952 15.3618 20.5245 -0.49777 -0.0399441 -0.676596
4.34558 13.4885 20.408 0.340528 0.337881 -0.562211
11.9033 16.4109 18.8244 0.215225 -0.446442 -0.0440872
10.8582 12.8034 19.8859 0.120994 -0.0444173 -0.102732
14.6805 14.7289 18.2612 0.173792 -0.222041 -0.0326484
20.9581 16.9497 20.5581 -0.0177227 -0.063396 -0.0156501
19.6727 14.6716 17.7364 0.140561 0.232066 -0.120106
17.0634 14.2575 20.8426 0.399253 0.689279 -0.172544
5.22622 19.3464 18.3126 -0.00350442 -0.32428 -0.957266
5.63562 20.1116 21.1533 1.19458 -0.744639 0.816624
12.6447 19.513 19.5021 -0.443994 -0.0841375 -0.171168
15.6928 20.4209 18.8772 0.0403547 -0.395959 0.0190267
19.3526 20.6345 17.7129 -0.20377 -0.241391 0.157017
17.6634 17.4758 19.7161 0.0721303 0.0701708 -0.0505886
