ITEM: TIMESTEP
50000
ITEM: NUMBER OF ATOMS
125
ITEM: BOX BOUNDS pp pp pp
4.2487739348810276e+00 2.1251226065118665e+01
4.2487739348810276e+00 2.1251226065118665e+01
4.2487739348810276e+00 2.1251226065118665e+01
ITEM: ATOMS x y z fx fy fz
8.73609 7.48539 6.69579 0.347585 -0.269555 1.34202
4.65859 6.52735 7.11262 -0.126895 1.65508 -0.409829
6.78519 4.33649 6.36772 0.554005 -0.146181 -0.318368
4.95309 5.32876 12.7623 -0.89728 -0.249342 0.0476766
11.8795 8.08775 5.39378 0.0570796 -0.0477663 -0.1599
19.5917 11.8463 9.103 0.0550491 0.0415198 -0.56262
14.8422 5.65095 6.14859 0.305624 -0.105362 0.549778
15.7737 8.93494 5.26084 -0.159855 0.131096 -0.000984449
12.2067 6.20646 7.94441 -0.172137 0.0558935 0.145812
7.80324 10.5118 6.64161 -0.328301 0.138278 -0.421018
18.5421 4.86676 8.16551 -0.124076 0.415395 -0.328578
6.51496 7.96772 12.0852 0.25659 0.155399 -0.0649914
13.1075 10.9248 6.62202 0.774929 -0.127908 1.64264
9.86768 4.56461 9.40395 0.528149 -0.317511 0.182155
20.0565 9.43264 6.41707 -0.00809272 0.130407 -0.0985254
7.08675 5.6108 9.42785 -0.49755 0.447819 0.289614
5.33524 10.743 4.07472 0.0287383 0.0163033 0.0335886
18.0677 11.9905 11.9026 -0.721081 -0.00869645 0.227059
9.8794 7.46992 12.0493 0.160849 -0.311604 -0.924771
16.2685 6.04035 9.77807 -0.955165 -0.0312732 0.267672
13.2308 7.09185 11.1884 0.146072 -0.275742 0.215822
19.0804 6.78867 11.0706 0.350693 -0.251405 0.0885391
16.978 12.5248 6.59601 -0.0526277 -1.33422 -0.175512
7.62755 10.2213 9.91269 0.299018 -0.234838 0.107614
12.0094 9.32266 9.29284 -0.333303 0.0557362 -0.33927
17.7974 8.79273 8.77006 0.211491 0.195096 -0.174912
12.6745 10.5051 12.1841 -0.0279404 0.2036 0.104178
21.1261 11.8222 12.1171 0.592773 -0.0102148 0.115188
21.3633 9.08447 9.9758 -0.286767 0.0671402 -0.324778
8.2957 7.73426 15.1578 -0.266073 -0.389639 0.456897
11.7779 7.52088 14.5745 0.149735 -0.289422 0.178859
16.2984 5.35632 13.4511 -1.6919 1.4909 0.315882
18.9948 6.54231 14.9888 0.0892809 -0.315286 0.529017
5.43034 9.80601 14.4552 -0.0145227 0.089418 0.303705
18.3212 11.2282 19.775 0.101787 -0.0782549 0.0130058
4.70086 7.29139 20.9638 0.116246 0.142708 0.954314
8.01647 7.18571 20.9022 0.190925 -0.292007 0.152417
12.6478 10.4589 15.5027 0.0518647 -0.184612 -0.00664599
14.0284 6.32838 20.301 0.334641 -0.454372 -0.26405
19.2788 9.06717 13.2984 0.0886688 0.719413 -0.117291
18.5577 10.8343 16.2831 -0.239705 -0.250478 -0.0567891
6.55107 5.3812 18.7777 -0.362374 -0.29172 0.742622
10.8492 6.52843 19.5775 0.00161627 0.0471727 -0.242113
14.9464 8.62935 13.7766 0.164643 -0.125165 0.0734313
12.9128 4.55958 16.4838 0.113027 0.753568 0.0441358
20.4993 7.10293 18.3444 -0.497397 -0.107974 -1.14795
17.9491 7.40138 20.3763 0.166023 -0.0882976 0.265032
13.7394 8.79983 18.5829 -0.226508 0.624183 -0.182942
15.9807 5.48183 16.8003 0.0062293 0.22746 0.332976
9.45857 10.1 13.5629 0.0805359 1.06013 0.0327946
6.10717 12.1324 17.9874 -0.372965 -0.159465 0.281768
6.91095 8.515 18.5118 -0.368639 0.913955 -0.851336
10.4407 9.20776 17.531 -0.143167 -0.185159 0.0898818
12.157 11.0674 20.9898 -0.96254 0.147011 -1.71616
16.8174 8.13371 17.4895 0.54543 1.34662 0.0867091
15.1952 11.9057 20.6215 0.157054 0.000431447 0.0260977
15.1527 11.9721 14.3494 0.647623 -0.0392393 -0.0440203
7.09879 4.55155 16.0166 -0.409309 -0.313992 -0.582124
9.18069 12.1457 18.3363 -0.469751 0.0357126 -0.0239883
12.0807 12.4723 17.8871 1.07988 0.318785 0.424644
8.01216 5.00907 13.0192 0.541154 -0.199286 -0.35978
4.45765 13.6692 5.66965 -0.282847 -0.460079 0.408256
6.97739 15.2524 7.46885 -0.271808 0.467059 -0.627775
8.84663 12.9846 8.26818 1.20155 -0.106396 0.116639
12.1608 12.761 9.59927 -0.0502009 0.126171 0.0647928
13.1301 17.5036 11.59 0.131366 0.0820558 0.40118
19.4738 15.4066 7.71587 -0.263959 -0.14371 0.140209
5.96534 18.3805 5.221 0.462766 -0.0054034 -0.271226
6.61934 18.2832 8.4123 -0.0539035 0.212866 0.0398089
9.4507 13.5383 11.9345 0.184674 -0.27335 -0.115849
9.93569 17.3395 5.59025 0.207785 -0.0201863 0.567712
13.2483 19.4957 6.1316 0.0306421 -0.0660206 -0.042242
15.7195 16.3611 5.91954 0.120769 0.842612 0.0744425
15.3505 19.8615 11.8362 0.387136 -0.423257 -0.0124239
16.6003 19.9129 6.85009 -0.403374 -0.574306 -0.383563
19.9209 18.1232 5.8069 -0.0856481 0.0808779 0.430041
20.63 16.6301 10.7871 -0.124108 -0.122442 -0.424123
7.79799 16.3043 11.5598 -0.0525701 -0.260249 -0.599088
13.7005 20.7134 9.28893 -0.0462076 -0.167436 -0.272444
10.9163 16.0498 10.0887 -0.35069 -0.407563 -0.073821
4.34403 21.086 8.51698 0.526104 -1.93249 1.04353
6.07347 12.9247 9.5115 -0.839825 0.13291 0.288337
13.8153 14.0707 6.28709 -0.330552 -0.443569 0.10137
16.6327 13.5925 9.26063 -0.157488 0.74495 0.993641
14.6263 16.8037 8.78969 -0.000805778 0.164363 0.315174
17.0515 16.423 11.7479 0.476903 -0.372239 -0.899456
17.9956 18.4703 9.53623 0.102304 0.165112 -0.222251
6.43673 19.4801 11.4499 0.111594 0.332158 -0.614783
8.59642 13.3954 4.17212 -0.222963 0.0826058 0.443817
9.31583 18.7866 12.301 0.885046 0.711797 0.193946
17.5822 14.3794 4.45104 0.822903 0.224484 -1.05131
7.14415 15.0679 16.9197 0.259285 0.305562 0.281006
10.9072 15.799 17.3782 -1.2093 -0.385457 0.638957
11.1275 13.3795 14.9486 -0.409685 -0.290732 0.0137753
9.26317 20.6625 20.9565 -0.368611 0.0679339 0.278287
15.436 16.9956 14.1074 -0.41943 0.20931 0.567824
13.7403 15.9222 16.5523 0.688125 -0.357619 -0.247278
18.213 14.4295 14.2524 -0.21006 -0.343652 -0.375977
10.4008 16.3287 14.0596 0.0599751 0.132711 -0.177492
21.0693 18.7195 13.0827 0.335269 0.369892 0.239723
6.59753 18.0844 15.3639 -0.0809778 0.0306634 -0.270166
16.1084 20.1851 19.5208 -0.211772 0.219869 -0.0645733
17.6418 17.6823 20.7541 0.0815156 0.19036 -0.424395
5.43653 15.0755 13.0451 -0.646813 0.326801 -0.452624
10.0313 20.7836 15.3195 -0.0165126 -0.0486685 -0.210209
15.697 19.7522 16.0007 -0.10333 -1.15278 -0.501226
19.0363 17.494 14.7877 -1.71533 0.540212 0.158002
21.0606 15.6541 15.7847 0.661237 1.03854 1.1433
5.99442 15.4668 20.7807 0.649281 0.391195 -0.384902
9.09186 17.6179 19.8192 -0.168552 -0.184545 -0.717536
11.6756 14.7083 20.6505 -0.247813 0.0153812 0.0277223
20.672 17.7922 18.9686 0.241418 -1.00981 1.3268
14.9115 15.1783 19.5254 0.381608 -0.689794 -0.00444537
16.7753 17.1458 17.516 0.318129 -0.0244002 0.0921638
20.3831 14.2972 19.3921 0.31005 -0.155446 0.254189
12.0083 18.6406 16.5842 0.036073 -0.260792 0.0661159
12.0528 20.5105 19.5099 0.360552 -0.19795 0.0395255
19.6206 20.8304 21.032 -0.175022 -0.0757322 -0.184906
20.1477 19.6518 16.9367 -0.202998 1.02324 -1.12249
13.3367 17.5972 20.3671 -0.334269 0.599123 0.173485
18.1441 13.919 17.3694 -0.568542 -0.0723338 0.107703
18.6154 20.9069 13.0069 1.52652 -1.13901 -0.382988
6.91945 12.9723 14.5456 1.10576 -0.872727 -0.000468422
21.0143 12.7978 15.5953 -0.514668 -1.40127 -0.0872011
13.3759 14.0848 12.9193 -0.104784 0.47035 -0.576541
