ITEM: TIMESTEP
40000
ITEM: NUMBER OF ATOMS
125
ITEM: BOX BOUNDS pp pp pp
4.2487739348810276e+00 2.1251226065118665e+01
4.2487739348810276e+00 2.1251226065118665e+01
4.2487739348810276e+00 2.1251226065118665e+01
ITEM: ATOMS x y z fx fy fz
13.5484 9.93797 5.04991 0.101274 1.40363 0.436717
7.66844 7.50578 6.16723 1.1352 0.544091 -0.145951
7.37948 7.19794 10.2533 0.0329969 -0.498151 -0.327569
10.5601 5.63821 5.8864 0.114672 -0.031322 0.0528283
13.5399 4.71655 7.05323 0.235775 0.330802 -0.125855
17.2532 5.42107 8.38366 -0.87857 -0.218902 -1.04066
4.91162 6.83379 6.72341 -1.22749 0.234209 -0.784777
8.62949 11.591 6.17986 -0.277778 -0.223258 0.248769
4.74677 10.282 6.76542 0.0846727 -0.213987 0.14977
10.4377 8.75014 7.37662 0.17917 0.203514 0.0502368
16.0792 8.01767 6.02698 0.0598812 -0.356699 0.697983
18.5734 10.2439 7.22701 0.391621 -0.375254 0.297686
20.5766 11.568 10.5736 -0.534536 -0.309292 -0.0146057
15.2412 10.8855 10.6213 1.51454 0.266887 0.130439
5.03616 5.25612 9.20846 -0.0711045 -1.1069 0.615975
4.56073 8.34775 9.86389 -0.786251 0.590523 0.107924
10.3512 7.24589 10.5148 0.631471 -0.0049772 -0.282349
15.7119 11.2016 7.46482 -0.571488 0.334543 -0.381168
14.3793 8.14827 8.9282 0.0938928 -0.286397 -0.415802
12.7946 9.39133 11.4286 -0.484316 -0.836543 0.671995
15.4814 7.63079 12.3501 0.066891 -0.3116 -0.373415
18.2705 9.00009 11.3664 0.20554 0.321234 0.0536293
19.0667 5.95025 10.5564 0.626772 0.109977 0.741999
7.16152 10.2307 8.86836 0.36249 0.025556 0.182664
9.90597 10.7065 11.1515 -0.369153 -0.022364 0.000350998
12.5498 11.216 8.89547 -0.418582 0.185701 -0.738483
18.4982 11.6709 4.38348 -0.355196 0.257198 -0.510034
7.85249 6.75333 15.8336 0.0306283 0.468956 -0.00208811
17.392 5.3335 18.2864 -0.140133 -0.0489239 -0.365608
10.5934 8.02514 13.5448 -0.130159 -0.0450587 0.481685
15.2408 5.72764 15.146 0.269799 -0.63504 -0.112666
13.3125 4.7771 17.3413 -0.332483 0.221225 0.536763
9.25242 10.1102 16.0824 -0.0974253 -0.813865 -1.01607
5.90075 10.3592 15.3991 0.493454 0.0814047 0.370618
15.6239 12.4855 15.2098 0.656968 -0.551524 -1.10529
11.9556 11.1315 14.0946 -0.198238 -0.0154727 0.685688
15.5104 10.1511 17.6073 -0.394686 0.918646 -0.353011
14.308 8.6681 15.2463 -1.8298 0.329454 -0.228584
20.6232 11.0145 13.6244 -0.609583 0.191892 -0.297497
17.2034 8.59838 14.9646 1.37631 -0.017193 -0.212298
8.94651 7.92839 18.5995 0.10064 -0.285021 0.36927
6.01234 6.01079 20.2801 -0.657594 0.614544 -0.673163
12.4115 8.40636 18.2892 -0.0153681 0.117622 -0.0267869
5.47069 4.81076 14.9582 -0.667942 0.210465 0.271072
13.1276 7.22347 21.2538 -0.177299 -1.2888 -0.150949
19.1376 5.42265 20.8985 0.0143296 0.354036 -0.131626
19.6659 6.50222 16.3108 -0.0180681 -0.143719 -0.0372731
20.7044 11.6514 18.013 0.422309 0.263583 0.15112
8.20931 11.0903 18.8059 -0.719793 0.714901 0.141289
5.58083 8.46677 17.9592 -0.181906 -0.0606128 0.166015
8.66378 4.97547 13.3507 0.132328 0.472648 -1.07772
10.9533 12.1554 17.55 0.0238331 -0.214964 0.29593
10.3243 9.94623 20.9031 0.351993 -0.273312 0.204291
16.285 8.98119 20.1558 0.297203 -0.292331 0.53552
7.37278 8.8464 12.8525 0.105229 0.167511 0.289495
18.6369 9.34984 17.868 0.0118983 -0.396817 -0.167635
20.3277 9.16245 20.5821 0.0571111 -0.310309 0.190233
6.44174 9.91436 21.1035 0.137893 -0.162103 -0.0356952
17.6317 4.79685 13.2531 -0.0585589 0.375 -0.496413
5.81372 20.479 12.1353 -0.255547 -0.100961 0.0803277
10.5177 15.6416 6.67046 -0.59928 0.103006 -0.577622
11.9405 18.9221 7.65119 0.921309 -0.0409322 -0.208897
13.0253 13.6198 6.45175 0.225233 -1.40986 -0.421174
16.7674 15.0774 6.62335 -0.0594726 -0.19204 0.671903
13.108 12.8607 11.8308 -0.216754 0.599305 -0.224558
19.9792 16.2879 5.60093 -0.211282 0.102455 0.142958
5.7068 16.3549 7.25273 0.351687 -0.168732 0.124872
7.38288 15.6931 4.34898 0.122749 0.223612 -0.0873483
20.7123 18.6948 8.35876 0.178052 -0.120556 0.221693
7.39021 21.386 5.26997 0.279912 -0.580454 0.538852
9.53473 14.0122 10.8274 0.0208505 0.160994 0.155362
14.6474 18.6308 5.76967 -0.225037 0.276058 0.181186
17.6228 19.1328 6.21247 0.393476 -0.0107584 0.397594
20.4562 20.8057 6.14868 0.34928 0.184162 -0.105195
5.59334 13.2939 9.22562 0.498238 0.650007 -0.290859
5.31897 16.8156 10.6143 0.58614 -0.0467493 0.544065
9.00434 16.878 12.6624 -0.434022 -0.351586 -0.612048
9.09783 17.0296 9.06321 -0.1302 -0.191211 0.599422
20.4144 13.095 6.4769 0.00542331 0.567787 0.250674
12.2508 16.1561 10.9842 -0.861067 0.202316 -0.024386
13.275 16.1278 8.00269 -0.563227 -0.394417 -0.0326493
19.6885 15.7572 9.45615 -0.596507 -0.431366 -0.173127
16.4825 14.4131 10.5325 -0.18478 0.0327533 -0.313879
17.8308 19.3503 9.59552 0.235848 0.478358 0.398557
7.04067 19.5074 9.50434 -0.147922 -0.109297 -0.136246
9.21254 19.7715 7.27507 -0.673471 0.394809 -0.330392
11.101 19.3844 10.6441 -0.261854 -0.0653956 0.538179
15.6691 17.3087 8.85787 1.2784 0.440735 0.602829
16.3408 18.053 12.6899 0.412603 0.550571 -0.160418
10.2971 18.5011 4.30372 0.115983 -0.188515 0.28027
13.3212 16.113 4.49767 -0.0745807 0.00264454 -0.405944
6.03952 16.9202 14.6287 0.17858 -1.1245 -0.88118
7.9171 13.1363 15.5672 -0.0467808 -0.0618721 -0.39333
5.3832 14.9669 17.2467 -0.297637 -0.488817 0.0795563
14.5681 16.459 18.0393 -0.70684 0.533959 0.150034
11.2653 14.8011 14.4394 -0.101093 -0.293194 -0.231875
13.4308 13.6437 16.7451 -0.18559 0.472094 0.0213535
20.7875 20.9612 18.4566 0.05514 0.124084 -0.202455
16.6369 16.1487 15.3393 0.305311 0.216522 -0.285447
19.7265 17.6374 13.3832 -0.026501 -0.148241 -0.158384
7.64122 19.4589 14.8683 0.0606137 -0.629357 -0.31569
10.9767 18.0419 14.6463 0.413401 0.33115 0.134008
14.4698 15.6152 12.9485 0.21133 -0.425197 0.607598
13.7317 19.0603 15.9486 0.260126 -0.13783 -0.186321
19.2826 18.7419 20.4637 0.478482 0.27641 0.309075
21.1078 18.1832 16.4898 -0.694669 0.450771 0.576273
18.1923 19.771 15.399 -0.00517103 -0.303258 0.608216
8.62138 14.6831 18.1588 -0.72135 0.0952542 0.221683
11.4574 15.0222 18.9755 1.13731 0.811256 -0.150265
13.0346 20.7716 12.9532 -0.0582115 -0.21825 0.544333
17.4381 17.9248 18.2367 -0.224506 0.0286503 -0.643958
16.5178 14.1339 17.7664 0.845342 -0.771667 0.216373
16.9066 15.5122 20.6324 -0.0448345 1.0241 0.0576721
19.702 15.314 19.4427 0.621858 -0.151088 -0.40842
6.9496 17.5492 18.1831 0.250752 0.38225 0.178243
10.7078 18.1219 18.1668 0.0996406 0.191984 -0.310318
7.27616 20.9096 17.5775 -0.25397 0.180662 0.833452
13.7564 19.1651 19.7092 -0.31591 0.0849206 -0.319901
10.1268 20.9649 15.9269 1.0812 0.240055 0.502348
5.61195 18.9755 20.9643 -0.0871371 -0.127693 -0.00870778
5.28999 13.2742 20.5154 -0.0573042 -0.0885589 -0.031193
10.1123 13.5211 21.1778 -0.255423 -0.382896 0.299141
15.2452 13.0322 20.6526 -0.52453 -0.860734 0.244425
6.56746 13.8218 12.6396 -0.0558172 0.138263 -0.233616
18.6399 14.4931 12.7903 0.0687256 0.104992 0.0563737
