ITEM: TIMESTEP
30000
ITEM: NUMBER OF ATOMS
125
ITEM: BOX BOUNDS pp pp pp
4.2487739348810276e+00 2.1251226065118665e+01
4.2487739348810276e+00 2.1251226065118665e+01
4.2487739348810276e+00 2.1251226065118665e+01
ITEM: ATOMS x y z fx fy fz
7.33218 7.27074 6.37289 0.510356 -0.0201744 -1.47549
5.25414 8.17334 11.0039 0.17005 -0.16964 0.7153
12.3258 6.32224 8.45214 -0.142777 -0.0133117 0.0694336
21.0747 6.03465 4.51483 0.00862787 0.833071 0.65507
7.74276 10.5202 5.97468 0.616105 -0.36021 0.0890951
11.3867 6.60427 11.8077 -0.402881 0.0779054 -0.00875376
12.2991 9.22991 9.97776 0.243207 -0.2202 -0.630225
10.25 7.65658 5.73446 0.890108 -0.241246 0.551096
16.9534 9.30994 6.63878 -0.693326 -0.270198 -0.0619035
13.67 10.3629 7.15764 0.0432682 0.315503 -0.0331543
19.5575 10.3026 7.80212 0.379734 -0.312139 0.427113
5.80422 12.5886 7.0827 -0.765414 0.397727 -0.0445069
7.58848 5.36652 11.8068 -0.728761 0.331939 -0.603609
9.13623 7.23246 8.99017 0.124748 0.119981 0.331613
14.0727 5.09064 12.2736 0.390326 -0.194072 0.1653
15.3851 8.46219 9.42681 0.247223 -0.520385 -0.335713
5.08764 7.17519 8.03589 -1.52262 0.16465 0.472796
7.09277 4.29668 7.85462 0.106004 0.29336 0.509004
8.04002 12.066 9.17328 0.253841 -0.676966 0.578406
7.11327 11.3275 12.6391 0.301287 -0.0601776 0.164855
10.5442 10.6164 11.8744 -0.583964 0.324126 0.683673
16.3712 13.0372 8.82197 -0.714443 -0.178653 -0.00180078
4.69006 11.1864 10.3758 0.0967792 0.32958 -0.455616
17.6151 12.0763 11.5486 0.537654 -0.0604954 0.0101297
16.7782 4.28269 4.49308 0.178513 -0.0683391 -0.362622
18.4971 6.82579 9.04359 -0.0288023 0.228889 0.0493533
10.6922 11.7943 4.45684 0.160246 0.241427 -0.0343075
9.90158 4.2206 10.0134 0.359658 -0.376918 -0.0466512
4.24005 9.2029 5.44071 0.361342 -0.00902686 -0.453731
16.9693 6.79484 12.1283 -0.394112 -0.429796 -0.448629
14.8955 10.5501 11.6162 -0.427851 0.193318 0.545772
21.0626 5.18336 10.229 0.203159 -0.504874 -0.0328308
17.5224 12.4276 5.82659 -0.17019 -0.11896 0.122366
6.91902 5.40177 18.1596 0.359865 -0.462219 -0.314583
9.25407 4.90591 14.2536 0.455491 -0.162827 0.578984
11.1484 5.90372 16.9641 -0.389937 -0.296849 0.0629788
15.6599 8.36453 14.5993 -0.485064 -0.0555718 0.0976797
14.2519 4.68957 16.5961 -0.213191 -0.121599 -0.421415
18.6705 6.57917 15.4399 -0.967054 -0.102394 1.16329
9.35403 11.7621 18.2891 0.387308 0.88445 -0.478842
19.8895 5.21499 13.1382 0.680115 -0.399966 -0.453416
19.2103 8.58481 13.2868 0.509446 0.982098 -0.641256
10.4056 11.9424 14.8846 -0.108993 0.0482932 0.199116
11.9731 8.24254 14.5569 -0.1348 0.219042 -0.0964806
20.2953 12.0097 16.5992 0.136542 0.187217 0.386328
18.1256 9.45572 16.398 -0.222068 0.461179 -0.0493607
20.8391 9.01425 18.0205 -0.375434 -0.0462838 0.0188199
6.46066 8.11021 19.2301 0.274325 0.626789 0.679738
17.9983 8.26195 20.8014 -0.0724566 0.340894 -0.128053
9.1646 8.82848 17.2227 -0.155978 -0.507799 -1.46703
7.57746 8.04563 13.7602 0.132564 0.151052 0.0587187
13.3273 8.13388 17.467 0.266645 0.483151 0.0279849
14.8028 9.61653 20.905 0.0148098 0.099955 -0.131032
12.5304 7.01649 20.3427 -0.083347 -0.0746741 -0.0182533
17.0306 11.2536 18.6934 -0.316962 0.218877 0.361153
16.2033 6.6489 17.9401 0.391173 0.365455 0.338106
19.2416 5.91385 19.2397 -0.785567 -0.39401 -0.638846
6.3067 10.4816 16.037 0.138962 0.0100495 0.0514329
20.8474 11.5321 13.4096 0.353169 -0.120567 0.0659969
6.8798 11.3661 20.0844 -0.364818 -0.459797 0.29144
9.78236 9.04081 20.0869 0.0657339 -0.0184362 0.424533
12.9624 11.5458 18.0696 0.243015 -1.0167 0.373529
14.7461 11.5525 15.188 -0.0664535 -0.282534 -0.0417941
20.8375 4.98921 16.8118 0.867093 -0.698074 -0.117607
12.7206 18.5366 7.07101 -0.0421288 -0.303258 0.726102
4.50722 15.6521 8.05266 0.00734548 -0.398437 0.101641
9.78503 16.1131 6.3171 1.26979 0.308663 0.400167
13.8163 14.1288 6.49174 -0.0309727 -0.0216166 0.415353
15.0018 18.3105 4.88701 -0.0823868 -0.351615 0.789585
14.1847 16.33 9.25389 0.0183395 -0.974155 -0.582282
19.6133 13.1992 8.79225 -0.0278874 0.498392 0.142887
14.2209 18.842 10.7948 -0.113859 0.962688 0.485605
4.90019 18.5636 7.31834 -0.935496 1.05732 0.685843
7.70837 18.3226 6.37995 -0.0713576 0.0135406 0.0267312
17.9625 20.7541 10.8406 -0.215423 0.00631886 -0.0428261
19.8993 19.7896 4.57735 0.749659 0.877349 -0.653123
6.17884 21.0002 4.85848 0.727476 -0.583244 -0.365642
17.8594 18.877 6.57719 -0.422499 0.312698 1.61135
17.0078 15.7143 7.18336 0.0108667 -0.0330141 -0.384249
6.27697 19.3509 10.2843 -0.392731 0.272517 -0.0621037
7.76609 15.0964 8.66666 0.231629 0.293557 -0.553737
10.687 13.1143 7.40991 0.0671785 -0.0229317 0.133731
9.12468 17.9444 9.30605 0.463761 0.153592 0.379023
13.0179 12.9909 9.90638 0.130879 -0.306817 -0.141632
10.1329 20.3875 6.74522 0.119572 0.454421 -0.0983416
11.4489 15.6724 10.7626 -0.340943 0.322223 0.315675
16.1526 15.2676 12.3475 0.259906 -0.903297 -0.929033
17.1581 17.4374 9.95621 0.325876 0.196418 0.211123
5.97076 14.5339 11.0373 -0.399282 -0.295819 0.545842
19.6869 15.4132 11.4872 -0.928119 -0.173281 -1.0179
11.7803 19.0078 4.14238 0.028657 -0.201042 -0.467148
10.7611 18.627 12.7071 -0.180671 -0.266696 -0.532462
4.74057 17.1337 4.6604 0.202661 -0.405587 -0.322452
8.38354 14.399 4.37364 -0.473325 -0.709937 -0.65574
7.14146 13.7133 15.2728 0.132592 0.00925251 -0.114337
14.7682 19.6192 19.2071 0.110383 0.499977 -0.685466
12.3847 14.2524 17.1203 -0.150406 -0.257488 -0.863222
15.9308 13.9974 16.8534 -0.119833 -0.11734 0.0718108
14.0105 17.0068 13.4302 -0.795465 0.431056 0.360176
4.39531 15.8684 13.7411 0.884282 0.205942 1.19952
18.7138 15.4816 17.3363 0.0623555 -0.0111475 0.170807
7.23282 17.3207 15.7011 -0.0422118 -0.261864 0.601859
12.3298 19.3431 15.2221 0.135401 0.18277 0.418872
14.5569 13.3783 20.5199 0.222453 -0.590248 -0.260317
17.7487 16.617 14.5484 0.377532 0.385619 0.0117025
9.63906 21.2325 20.2524 -0.0163758 0.80981 0.175177
17.1396 20.8561 14.4256 -0.0358683 0.208762 -0.379342
6.17818 13.8356 18.4465 0.0865501 0.343252 -0.371599
19.7119 18.8558 12.954 0.134411 -0.140222 -0.0603433
9.668 15.5767 18.3445 -0.934986 -0.0346683 -0.433658
11.9024 15.5196 20.5111 0.0697646 -0.44358 1.03152
12.5448 17.0656 17.9606 -0.558118 1.91086 -0.803149
15.1029 16.246 19.1663 1.0993 -0.134382 0.238333
17.9096 17.5275 20.9561 0.102995 -1.05782 -1.18757
18.5127 13.3987 14.262 -0.363302 0.426229 0.358231
4.37848 16.5274 18.6207 0.0724857 0.253295 -0.234952
5.83152 20.389 13.7969 -0.281362 0.257911 0.221053
5.67231 19.6192 18.8842 -0.239406 -0.362856 0.00228944
8.88722 19.8214 17.5254 0.0742761 -0.14131 -0.578861
18.2769 19.2547 18.1244 0.117889 0.103092 0.137186
15.785 18.644 16.0473 -0.632191 -0.382085 0.423208
8.53466 18.2643 20.4179 -0.0625538 -0.508465 -0.420411
17.9847 14.0842 20.2531 -0.0952122 0.309125 -0.395485
9.87819 15.4736 14.3639 -0.0161229 0.126905 0.0715675
7.39916 17.9478 12.7305 0.562998 -0.703234 -0.159281
