ITEM: TIMESTEP
10000
ITEM: NUMBER OF ATOMS
125
ITEM: BOX BOUNDS pp pp pp
4.2487739348810276e+00 2.1251226065118665e+01
4.2487739348810276e+00 2.1251226065118665e+01
4.2487739348810276e+00 2.1251226065118665e+01
ITEM: ATOMS x y z fx fy fz
12.1687 11.1182 5.15276 -0.832827 -0.29537 -0.299365
6.09725 6.24802 6.11195 0.197854 0.0239247 -0.839237
13.245 8.71921 10.2549 -0.199007 0.0199987 -0.174896
11.3981 5.26201 8.35603 -0.405555 -0.100351 0.339022
17.3142 6.02801 5.53873 0.0453505 -0.346491 0.0616825
13.831 7.01854 7.61406 0.43987 0.381661 -0.347111
9.62792 8.64944 12.0782 -0.129861 -0.119961 0.146606
4.67193 11.9302 9.79424 0.0664475 0.031237 -0.0446838
5.78148 9.63242 7.22018 0.546859 0.128308 0.0726627
8.60917 10.8195 5.24998 0.123793 0.372027 0.404246
20.0517 9.82898 5.79061 -1.00448 0.763074 0.510764
9.80903 6.57561 5.08844 0.383755 -0.108943 0.196247
14.5721 11.9715 6.88754 -0.562737 0.33502 0.127442
17.4369 11.979 7.73723 0.71225 -0.688797 0.712866
17.0175 12.0485 4.62571 0.0320386 0.299171 -0.777682
19.344 6.74731 8.09168 0.19049 0.177987 -0.0604216
5.70256 6.91179 9.02106 0.150332 0.125965 0.557462
10.5157 5.25057 11.6016 -0.95345 -0.581432 -0.903077
10.9906 11.2923 10.5512 -0.056893 -0.099714 -0.272008
18.2002 11.3325 11.3752 -0.682018 0.83187 -0.135464
15.8546 6.06683 10.0458 -0.138034 0.684942 -0.277525
14.7937 11.4012 10.5163 0.0839469 0.385433 -0.54276
20.8488 5.14014 10.7275 -0.490092 0.767442 0.283216
15.9429 8.64955 12.6404 -0.0288364 -0.0623547 -0.272628
19.2751 8.59716 11.2377 0.525427 -0.946667 -0.0242562
6.05243 9.41984 11.2231 0.000387472 -0.109872 -0.378609
7.92146 11.8667 8.92441 -0.00163522 -0.0893233 -0.349476
12.8076 6.79614 12.6086 0.777224 0.36089 0.800349
4.50141 12.6411 6.39019 0.0733613 0.470558 0.0864628
13.9744 4.18852 6.30909 1.78694 0.254103 0.116125
15.7826 4.64006 12.8049 -0.00504795 0.169796 0.426574
16.942 9.07281 4.41775 -0.00398797 -0.697103 -0.201724
20.7227 7.87629 14.2441 -0.192356 -0.115917 -0.02389
9.88475 5.80644 14.5817 -0.657088 0.105228 0.570033
17.5687 4.28131 18.7561 -0.151635 0.318273 -0.357079
11.824 7.87149 15.8533 -0.141687 0.0548121 0.507661
6.94016 6.57603 12.9256 -0.0764975 -0.223975 -0.0794567
14.3818 6.11935 17.1534 0.174362 -0.143486 0.323873
19.8332 6.87626 17.8128 -0.0126058 -2.63891 -0.677901
17.0996 6.92831 15.1113 0.172025 0.100533 -0.0771907
20.8098 11.541 13.1542 0.56457 -0.788762 0.37992
6.39395 9.47741 14.2496 0.400934 0.207432 0.709577
12.1721 10.2011 13.6119 0.0297677 0.0364464 -0.355999
11.5897 12.1945 16.0329 0.251345 0.119047 0.231362
14.5346 9.5321 16.3159 0.105626 0.320449 -0.288022
17.9028 11.3201 14.8739 0.461892 -0.436616 -0.336102
5.39646 5.46401 19.1574 0.498684 -0.225535 0.268113
8.27935 7.82813 17.2279 0.0220022 -0.233559 -0.117806
19.9693 9.56249 18.1712 0.412366 2.78466 0.387803
11.214 5.34186 18.6575 -0.121368 0.165414 -0.0388066
14.7048 6.6782 20.7903 -0.176412 -0.254214 -0.216264
13.8511 9.82553 19.5763 0.184191 -0.486536 -0.0602362
17.0106 8.28528 17.9652 -0.493422 0.12718 0.596813
5.48594 10.9241 20.6896 0.0281366 0.04137 -0.141641
10.6306 8.72196 19.3986 0.0886715 -0.094937 0.0480603
20.7243 7.59752 21.0628 0.127203 -0.798854 -0.531166
6.19937 5.21282 16.0365 -0.0494535 0.321927 -0.422704
14.0373 12.8332 20.293 0.130454 0.85439 -0.0127306
17.4302 11.9456 17.7927 -0.271953 0.110495 0.607755
7.57631 8.30556 20.71 -0.437337 -0.307056 -0.448066
15.1105 11.6354 13.5681 -0.308051 0.382692 0.394105
5.3683 12.3829 17.5287 -0.160078 0.112949 0.00109989
9.61911 11.9022 19.4205 0.149239 -0.0244678 -0.297032
7.56787 14.8558 6.73404 -0.338657 -0.511492 -0.217286
11.2617 13.6017 7.17928 -0.444915 -0.59078 -0.53895
8.93739 17.6244 6.93104 0.507631 0.395821 0.00193658
15.8871 15.3744 9.11629 0.123787 -0.156565 0.419022
17.001 14.7013 6.24482 1.02502 0.67446 -0.486008
10.7741 16.5369 12.0768 -0.0279515 0.450253 -0.0497164
19.8969 16.5615 7.13215 0.159735 -0.129725 -0.0470567
5.92222 18.2588 6.13002 -0.0583801 -0.108525 0.0527985
18.6733 20.4315 12.3966 0.187132 -0.258823 -0.572943
12.41 13.8294 11.7913 0.0238255 -0.270271 -0.130104
11.3116 20.3489 5.88657 -1.89483 -0.808694 -0.455982
17.3265 18.3731 6.90664 -0.143157 -0.130765 0.0540965
20.0334 14.4227 12.6216 -0.122215 0.588434 -0.378738
5.37692 16.1394 9.35482 0.0829138 -0.124552 -0.436173
7.44101 16.1585 11.7741 -0.166725 0.364471 0.594273
9.19739 14.9424 9.57318 0.331261 -0.00868435 -0.607599
8.43115 12.9456 11.9547 -0.158301 -0.295105 0.274698
19.2671 13.9109 9.38506 -0.0347062 0.678838 -0.0868853
5.24391 19.5292 10.677 0.492931 -0.848328 -0.0549855
7.38855 20.9703 7.96241 0.0731982 -0.406813 -0.0271676
10.3818 19.0439 9.54652 0.0383994 0.138391 0.0112685
4.34131 20.7926 4.9341 0.136239 0.160534 -0.596767
12.3571 15.736 8.92973 0.0845994 0.803012 0.883229
16.5708 17.5447 11.4768 -0.54162 0.159938 -1.57252
17.99 20.9709 9.1237 -1.02364 -0.0475603 0.397136
19.7119 17.3122 10.6913 -0.0733773 0.115092 -0.0921273
20.3975 20.0984 7.82121 1.07504 -0.532295 -0.228199
14.1943 15.658 6.44118 -0.692041 0.216349 -0.717982
13.4876 20.9063 10.9067 -0.561605 -0.407307 -0.405406
4.98991 16.895 13.8452 -0.868978 0.85484 -0.375772
6.20872 14.2772 14.7716 0.145418 -0.990112 0.0363334
7.87296 17.065 15.1052 0.506852 0.396 0.250345
5.76289 18.7738 19.1841 -0.532531 -0.0346715 0.569774
9.68124 14.3995 14.6065 0.158883 -0.10602 0.0732584
8.20154 21.0839 21.0201 -0.33272 -0.239944 -0.0510684
13.9544 14.7416 14.3458 0.851858 -0.708991 0.135261
19.3966 14.2333 15.7428 0.0111269 -0.0602364 0.300908
16.3106 19.7397 21.1475 0.123986 -0.214194 0.127276
10.6141 19.7937 13.8325 -0.448639 -0.874373 -0.165259
7.32476 20.0942 13.2395 -0.0949511 0.0425689 0.290853
14.9562 16.4869 19.7927 0.28574 0.0279411 -0.200657
12.0123 16.7388 15.1467 -0.86806 0.845982 0.794778
17.4703 20.7412 15.3551 -0.317817 -0.360895 0.864183
14.2503 18.1603 13.3745 -0.195226 0.306659 0.25569
20.5115 19.8783 14.8724 0.64171 -0.187953 0.244907
18.0697 17.447 13.8796 0.801106 -0.265424 1.38158
18.6967 17.8941 17.0754 -0.101046 -0.0131415 0.2762
5.37791 14.4535 20.1251 0.263914 0.262335 0.503593
4.76936 16.0599 17.1599 -0.0377579 0.190355 0.229219
12.1245 17.0306 21.1918 -0.41006 0.198033 0.0604165
7.78321 14.9461 18.2462 0.461428 0.0464867 -0.395128
13.265 20.1364 20.2267 -0.0692567 -0.00868458 -0.535052
12.0532 15.4117 18.2862 -0.10445 -0.136558 0.00957461
9.74632 14.6674 21.0016 0.0492605 0.121257 0.223999
14.6549 18.9236 16.9036 0.0934142 -0.14971 0.140652
16.4215 15.4073 16.5818 -0.0545063 0.244218 0.15105
18.2874 16.6248 20.3604 -0.236443 -0.00365981 0.1143
19.7592 12.9474 19.9844 -0.358341 -0.243798 -0.0937063
7.7694 19.6895 17.1317 0.402215 0.196613 -0.297642
8.746 17.8875 20.0136 0.2266 -0.135159 0.148703
10.9017 19.0355 17.528 0.421571 -0.0598355 0.0700518
13.1754 21.1173 14.7682 0.332718 0.22326 0.390638
