ITEM: TIMESTEP
20000
ITEM: NUMBER OF ATOMS
125
ITEM: BOX BOUNDS pp pp pp
4.2487739348810276e+00 2.1251226065118665e+01
4.2487739348810276e+00 2.1251226065118665e+01
4.2487739348810276e+00 2.1251226065118665e+01
ITEM: ATOMS x y z fx fy fz
7.16243 6.68149 8.72671 -0.564485 0.258074 0.498035
5.73114 8.96374 4.21191 -0.434791 0.0145675 0.259286
10.3006 5.76945 8.03479 -0.108477 0.216971 -0.469696
10.5208 8.87679 4.55592 -0.323432 0.0728206 0.858728
14.0912 7.43779 6.21273 -0.0373165 -0.185808 0.015253
17.069 11.1788 11.7937 -0.419725 -0.219808 0.317995
21.1027 5.93152 6.42953 0.739364 -0.0364421 0.0852165
6.62135 12.3888 4.91044 0.161392 -0.302959 -0.512125
17.48 11.0987 8.57113 -0.00215117 -0.0899774 -0.221054
7.35272 9.82975 6.79044 -0.269114 -0.0600142 0.257296
9.43533 11.4194 8.26791 0.297697 0.268133 0.279666
8.66742 9.83432 12.8571 -0.246116 0.426881 -0.18823
13.4411 10.9449 5.59871 -0.384628 -0.33888 -0.217196
18.7982 8.68387 12.6646 0.270956 -0.125759 0.143599
18.556 7.79866 6.70692 -0.1259 -0.116725 -0.168255
16.3265 9.63534 5.30062 0.372209 0.327105 0.0477823
8.31978 4.80055 11.037 -0.428255 0.291039 0.228991
18.4036 4.32966 6.076 -0.113966 0.257224 -0.0433624
11.7324 5.27669 10.7831 -0.359177 0.262662 -0.0165913
10.1965 8.16004 10.3973 -0.320119 0.148085 0.162635
12.2732 9.30875 8.33211 0.183712 0.101938 -0.0905177
13.6176 8.15826 11.7487 -0.122281 -0.108725 -0.379716
16.4965 6.29744 12.2188 -0.276286 -0.1278 -0.459923
16.2119 7.55506 8.94671 -0.436145 0.591728 -0.0516983
7.78702 6.89915 5.74325 0.344492 -0.62758 -0.666048
20.2512 9.27864 8.95369 0.0529396 0.130137 0.304875
11.083 11.9972 10.9986 -0.869068 -0.200954 0.198337
6.44302 10.2124 10.2643 -0.0321662 -0.863001 -0.333803
4.39386 4.76046 10.3464 0.231944 -0.199136 -0.172607
20.3029 12.138 10.8705 -0.116214 -0.424966 -0.553318
17.6984 4.93676 9.48195 0.423611 -0.503481 -0.246104
10.48 12.5586 5.23729 -0.127294 0.0939913 0.299567
14.0169 12.5 10.5335 0.821296 0.0972267 -0.285959
18.9315 4.36939 12.6201 0.82294 -0.349971 -0.286919
6.51154 5.92191 15.8621 -0.00612463 0.022983 0.0940322
5.37899 11.5404 12.9718 0.494111 0.0614206 0.694342
9.09412 6.73756 13.5928 0.276602 -0.00733322 -0.438393
9.96567 5.27131 16.0862 -0.0567213 -0.480341 0.612206
12.6741 6.44418 14.5928 0.210442 -0.320511 -0.274183
16.8121 4.17376 14.8358 -0.259534 0.29327 0.52716
5.39915 9.07787 15.2878 0.12379 0.209248 -2.0751
5.13442 8.77516 18.0213 -0.0312606 -1.06927 1.22698
15.7383 8.32674 14.3455 -0.0672313 0.446746 0.695708
12.839 8.62413 16.8395 0.126655 0.174246 0.295376
20.3864 12.769 16.9097 -0.476372 -0.474306 -0.468085
6.04704 6.91668 12.7893 -0.346236 0.063629 -0.366561
18.0662 9.51839 16.6595 0.152709 -0.00904811 0.0498055
12.4731 4.91023 18.3307 0.255539 0.317717 -0.853977
5.77048 5.96854 20.1678 -0.0444873 0.12167 -0.370482
8.81904 8.9995 15.9971 -0.235431 0.0365441 -0.0728546
10.0404 7.74266 18.5647 0.247487 -0.378867 0.016827
7.9644 10.129 19.1523 0.143186 0.390898 0.129917
15.4328 6.22552 17.3371 -0.0540429 0.134702 -0.0788297
16.9157 6.8109 20.5821 -0.851852 0.040647 0.375079
19.2436 6.54428 15.3253 -0.123563 0.549386 -0.163023
15.2135 11.1667 16.3432 0.0955722 0.244781 -0.797836
21.1643 11.2226 19.4432 -0.445352 0.417669 0.900698
11.7225 10.9659 19.7054 0.0188759 0.0521396 -0.630269
15.1421 10.2204 19.2215 0.104593 -0.500121 0.54904
19.313 8.19927 19.8281 1.05992 0.716065 -0.274254
13.2345 11.0742 13.2666 0.143286 -0.555785 0.458381
11.15 5.80394 21.0116 0.0886223 0.435137 0.568813
4.44143 15.0015 9.71427 -0.350274 0.821025 0.268777
8.00901 14.5427 6.87719 0.131222 -0.122734 0.213049
10.975 16.3373 6.92205 -0.41825 -0.228664 -0.539322
16.614 15.4165 6.01812 0.856663 -0.542864 0.335521
13.6301 14.55 4.97057 -0.64979 -0.687032 -0.135901
18.5634 12.7052 4.69947 -0.0273295 0.0777576 0.163441
6.91391 13.217 10.3526 0.525953 0.315472 0.0158306
4.54124 13.5197 7.03779 -0.0896234 -0.193288 -0.282051
7.35216 17.7619 6.32729 0.0287873 -0.263566 -0.110702
9.21101 20.4593 4.79227 -0.657539 -0.00950287 0.0360206
5.72226 20.3033 4.7156 -0.0304117 -0.366468 0.377436
15.2822 21.0319 7.07935 -0.058288 -0.0473262 0.0276516
14.2942 17.5784 5.78191 -0.257051 0.726064 -0.323021
17.5394 18.3414 5.70754 0.148855 0.239748 -0.0965199
6.54171 15.7658 12.7218 0.13219 0.0265556 -0.360422
4.3144 18.9285 7.89741 -0.0796965 0.296232 -0.255818
12.3053 17.651 12.0332 0.691291 0.401673 0.0899509
10.5047 15.3102 11.2019 -0.439886 -0.384073 -0.355343
20.2821 15.4352 12.897 0.155945 -0.387511 -0.353998
13.0519 17.706 8.65293 0.38708 0.195506 0.931705
15.8439 19.2409 10.4105 0.0728491 -0.235302 -0.216418
17.9001 14.094 10.9868 -0.344996 0.548287 -0.0855179
14.9076 13.128 7.25364 0.480654 -0.501897 1.21897
6.07594 18.5118 10.4503 0.232409 0.047536 0.213488
7.67673 20.3017 8.0082 -0.192782 0.56427 0.0730516
11.3632 19.8764 7.05916 0.159948 -0.0997343 0.0625702
9.8759 19.2921 10.2835 0.414744 -0.626821 -0.0758639
15.039 15.591 10.26 0.0372981 0.250916 0.0484935
18.0996 17.5544 12.2839 -0.309495 0.381135 0.011338
17.9934 16.8048 8.99623 0.0573183 0.133759 -0.0298143
5.84969 15.563 4.44493 -0.0660595 0.0745306 0.278449
13.8342 20.8864 12.3296 0.635843 -0.273661 0.648472
8.57661 15.5994 17.0858 0.145834 -0.0683357 0.0514264
20.6582 15.7233 15.9055 -0.116315 0.299292 0.580421
8.44012 13.1884 13.5136 0.213002 0.0907903 -0.219722
8.8635 14.1568 19.9631 -0.171772 0.146623 0.071524
9.79391 16.9335 13.9512 -0.306265 0.00964935 0.405581
13.0388 16.7168 16.1634 -1.69044 -0.0653385 -0.309891
15.0223 13.7558 13.9918 1.18484 -0.157906 -0.413825
4.90337 17.9266 19.429 -0.429895 -0.00421832 -0.333325
12.1529 14.077 13.7508 -1.32522 0.42071 -0.094374
15.5607 15.4489 16.6111 1.43116 -0.630334 0.53364
17.2506 13.0938 18.7848 0.0937431 -0.196563 -0.284285
6.45005 17.2461 15.5187 0.0843244 0.498266 0.351739
19.9953 20.5821 15.8547 0.158348 -0.385232 0.00671795
12.0327 19.6852 14.9031 -0.164324 0.100568 0.151202
18.1358 12.9375 14.7422 -0.177953 -0.0501007 -0.204836
12.2815 19.8657 20.6757 0.27959 -0.775541 0.312923
15.2799 18.4524 14.8695 -0.384871 0.0481112 -0.78194
17.9627 17.7846 16.1623 0.63518 -0.0408211 0.117139
7.7664 19.9402 13.7929 0.120116 0.0518862 0.174075
5.46559 14.1102 18.6895 0.567016 0.485793 -0.023865
7.96697 18.0236 19.9451 0.344661 -0.291628 -0.0650601
11.8985 16.3567 20.314 -0.455841 0.333924 -0.263722
13.8056 13.1256 18.6234 0.084364 0.536003 0.0575775
15.7292 15.868 20.0041 -0.511706 0.383706 -0.564171
18.7722 16.0201 19.867 0.927374 -0.552632 0.102245
7.15059 20.1936 17.5227 0.0524679 -0.178984 -0.0444282
10.6346 18.0756 17.8552 -0.138605 0.431341 -0.11473
15.6815 21.078 20.5813 -0.47993 -0.558813 0.163351
14.2311 19.0849 18.0117 0.227256 0.0508007 0.155232
17.6291 18.811 19.3147 -0.13297 0.307965 -0.128568
4.62225 18.8889 13.3881 -0.389378 0.021086 -0.106216
