
                                 *****************
                                 * O   R   C   A *
                                 *****************

                                            #,                                       
                                            ###                                      
                                            ####                                     
                                            #####                                    
                                            ######                                   
                                           ########,                                 
                                     ,,################,,,,,                         
                               ,,#################################,,                 
                          ,,##########################################,,             
                       ,#########################################, ''#####,          
                    ,#############################################,,   '####,        
                  ,##################################################,,,,####,       
                ,###########''''           ''''###############################       
              ,#####''   ,,,,##########,,,,          '''####'''          '####       
            ,##' ,,,,###########################,,,                        '##       
           ' ,,###''''                  '''############,,,                           
         ,,##''                                '''############,,,,        ,,,,,,###''
      ,#''                                            '''#######################'''  
     '                                                          ''''####''''         
             ,#######,   #######,   ,#######,      ##                                
            ,#'     '#,  ##    ##  ,#'     '#,    #''#        ######   ,####,        
            ##       ##  ##   ,#'  ##            #'  '#       #        #'  '#        
            ##       ##  #######   ##           ,######,      #####,   #    #        
            '#,     ,#'  ##    ##  '#,     ,#' ,#      #,         ##   #,  ,#        
             '#######'   ##     ##  '#######'  #'      '#     #####' # '####'        



                  #######################################################
                  #                        -***-                        #
                  #          Department of theory and spectroscopy      #
                  #    Directorship and core code : Frank Neese         #
                  #        Max Planck Institute fuer Kohlenforschung    #
                  #                Kaiser Wilhelm Platz 1               #
                  #                 D-45470 Muelheim/Ruhr               #
                  #                      Germany                        #
                  #                                                     #
                  #                  All rights reserved                #
                  #                        -***-                        #
                  #######################################################


                         Program Version 5.0.4 -  RELEASE  -


 With contributions from (in alphabetic order):
   Daniel Aravena         : Magnetic Suceptibility
   Michael Atanasov       : Ab Initio Ligand Field Theory (pilot matlab implementation)
   Alexander A. Auer      : GIAO ZORA, VPT2 properties, NMR spectrum
   Ute Becker             : Parallelization
   Giovanni Bistoni       : ED, misc. LED, open-shell LED, HFLD
   Martin Brehm           : Molecular dynamics
   Dmytro Bykov           : SCF Hessian
   Vijay G. Chilkuri      : MRCI spin determinant printing, contributions to CSF-ICE
   Dipayan Datta          : RHF DLPNO-CCSD density
   Achintya Kumar Dutta   : EOM-CC, STEOM-CC
   Dmitry Ganyushin       : Spin-Orbit,Spin-Spin,Magnetic field MRCI
   Miquel Garcia          : C-PCM and meta-GGA Hessian, CC/C-PCM, Gaussian charge scheme
   Yang Guo               : DLPNO-NEVPT2, F12-NEVPT2, CIM, IAO-localization
   Andreas Hansen         : Spin unrestricted coupled pair/coupled cluster methods
   Benjamin Helmich-Paris : MC-RPA, TRAH-SCF, COSX integrals
   Lee Huntington         : MR-EOM, pCC
   Robert Izsak           : Overlap fitted RIJCOSX, COSX-SCS-MP3, EOM
   Marcus Kettner         : VPT2
   Christian Kollmar      : KDIIS, OOCD, Brueckner-CCSD(T), CCSD density, CASPT2, CASPT2-K
   Simone Kossmann        : Meta GGA functionals, TD-DFT gradient, OOMP2, MP2 Hessian
   Martin Krupicka        : Initial AUTO-CI
   Lucas Lang             : DCDCAS
   Marvin Lechner         : AUTO-CI (C++ implementation), FIC-MRCC
   Dagmar Lenk            : GEPOL surface, SMD
   Dimitrios Liakos       : Extrapolation schemes; Compound Job, initial MDCI parallelization
   Dimitrios Manganas     : Further ROCIS development; embedding schemes
   Dimitrios Pantazis     : SARC Basis sets
   Anastasios Papadopoulos: AUTO-CI, single reference methods and gradients
   Taras Petrenko         : DFT Hessian,TD-DFT gradient, ASA, ECA, R-Raman, ABS, FL, XAS/XES, NRVS
   Peter Pinski           : DLPNO-MP2, DLPNO-MP2 Gradient
   Christoph Reimann      : Effective Core Potentials
   Marius Retegan         : Local ZFS, SOC
   Christoph Riplinger    : Optimizer, TS searches, QM/MM, DLPNO-CCSD(T), (RO)-DLPNO pert. Triples
   Tobias Risthaus        : Range-separated hybrids, TD-DFT gradient, RPA, STAB
   Michael Roemelt        : Original ROCIS implementation
   Masaaki Saitow         : Open-shell DLPNO-CCSD energy and density
   Barbara Sandhoefer     : DKH picture change effects
   Avijit Sen             : IP-ROCIS
   Kantharuban Sivalingam : CASSCF convergence, NEVPT2, FIC-MRCI
   Bernardo de Souza      : ESD, SOC TD-DFT
   Georgi Stoychev        : AutoAux, RI-MP2 NMR, DLPNO-MP2 response
   Willem Van den Heuvel  : Paramagnetic NMR
   Boris Wezisla          : Elementary symmetry handling
   Frank Wennmohs         : Technical directorship


 We gratefully acknowledge several colleagues who have allowed us to
 interface, adapt or use parts of their codes:
   Stefan Grimme, W. Hujo, H. Kruse, P. Pracht,  : VdW corrections, initial TS optimization,
                  C. Bannwarth, S. Ehlert          DFT functionals, gCP, sTDA/sTD-DF
   Ed Valeev, F. Pavosevic, A. Kumar             : LibInt (2-el integral package), F12 methods
   Garnet Chan, S. Sharma, J. Yang, R. Olivares  : DMRG
   Ulf Ekstrom                                   : XCFun DFT Library
   Mihaly Kallay                                 : mrcc  (arbitrary order and MRCC methods)
   Jiri Pittner, Ondrej Demel                    : Mk-CCSD
   Frank Weinhold                                : gennbo (NPA and NBO analysis)
   Christopher J. Cramer and Donald G. Truhlar   : smd solvation model
   Lars Goerigk                                  : TD-DFT with DH, B97 family of functionals
   V. Asgeirsson, H. Jonsson                     : NEB implementation
   FAccTs GmbH                                   : IRC, NEB, NEB-TS, DLPNO-Multilevel, CI-OPT
                                                   MM, QMMM, 2- and 3-layer-ONIOM, Crystal-QMMM,
                                                   LR-CPCM, SF, NACMEs, symmetry and pop. for TD-DFT,
                                                   nearIR, NL-DFT gradient (VV10), updates on ESD,
                                                   ML-optimized integration grids
   S Lehtola, MJT Oliveira, MAL Marques          : LibXC Library
   Liviu Ungur et al                             : ANISO software


 Your calculation uses the libint2 library for the computation of 2-el integrals
 For citations please refer to: http://libint.valeyev.net

 Your ORCA version has been built with support for libXC version: 5.1.0
 For citations please refer to: https://tddft.org/programs/libxc/

 This ORCA versions uses:
   CBLAS   interface :  Fast vector & matrix operations
   LAPACKE interface :  Fast linear algebra routines
   SCALAPACK package :  Parallel linear algebra routines
   Shared memory     :  Shared parallel matrices
   BLAS/LAPACK       :  OpenBLAS 0.3.15  USE64BITINT DYNAMIC_ARCH NO_AFFINITY Haswell SINGLE_THREADED
        Core in use  :  Haswell
   Copyright (c) 2011-2014, The OpenBLAS Project


================================================================================

----- Orbital basis set information -----
Your calculation utilizes the basis: def2-SVP
   F. Weigend and R. Ahlrichs, Phys. Chem. Chem. Phys. 7, 3297 (2005).

----- AuxJ basis set information -----
Your calculation utilizes the auxiliary basis: def2/J
   F. Weigend, Phys. Chem. Chem. Phys. 8, 1057 (2006).

================================================================================
                                        WARNINGS
                       Please study these warnings very carefully!
================================================================================


WARNING: Geometry Optimization
  ===> : Switching off AutoStart
         For restart on a previous wavefunction, please use MOREAD

INFO   : the flag for use of the SHARK integral package has been found!

================================================================================
                                       INPUT FILE
================================================================================
NAME = run.inp
|  1> !B3LYP DEF2-SVP Opt
|  2> * xyz 0 1      
|  3> C       -0.373885602      0.000000000     -0.469939086
|  4> H       -0.364967366      0.000000000     -1.592845188
|  5> H       -2.362046135      0.000000000      0.349413023
|  6> H       -2.413873331      0.000000000      2.378738450
|  7> H        0.681942007      0.000000000     -0.419274600
|  8> H       -0.315638760      0.000000000      4.199011026
|  9> H        0.850930828      0.000000000      3.248755045
| 10> C       -1.409872919      0.000000000      0.573395571
| 11> C       -1.405457094      0.000000000      2.024693140
| 12> C       -0.233976910      0.000000000      3.158929484
| 13> *
| 14> 
| 15>                          ****END OF INPUT****
================================================================================

                       *****************************
                       * Geometry Optimization Run *
                       *****************************

Geometry optimization settings:
Update method            Update   .... BFGS
Choice of coordinates    CoordSys .... Z-matrix Internals
Initial Hessian          InHess   .... Almoef's Model

Convergence Tolerances:
Energy Change            TolE     ....  5.0000e-06 Eh
Max. Gradient            TolMAXG  ....  3.0000e-04 Eh/bohr
RMS Gradient             TolRMSG  ....  1.0000e-04 Eh/bohr
Max. Displacement        TolMAXD  ....  4.0000e-03 bohr
RMS Displacement         TolRMSD  ....  2.0000e-03 bohr
Strict Convergence                ....  False
------------------------------------------------------------------------------
                        ORCA OPTIMIZATION COORDINATE SETUP
------------------------------------------------------------------------------

The optimization will be done in new redundant internal coordinates
Making redundant internal coordinates   ...  (new redundants) done
Evaluating the initial hessian          ...  (Almloef) done
Evaluating the coordinates              ...  done
Calculating the B-matrix                .... done
Calculating the G-matrix                .... done
Diagonalizing the G-matrix              .... done
The first mode is                       ....    9
The number of degrees of freedom        ....   24

    -----------------------------------------------------------------
                    Redundant Internal Coordinates


    -----------------------------------------------------------------
         Definition                    Initial Value    Approx d2E/dq
    -----------------------------------------------------------------
      1. B(H   1,C   0)                  1.1229         0.319056   
      2. B(H   4,C   0)                  1.0570         0.406448   
      3. B(C   7,H   2)                  0.9782         0.543066   
      4. B(C   7,C   0)                  1.4703         0.465164   
      5. B(C   8,C   7)                  1.4513         0.498806   
      6. B(C   8,H   3)                  1.0688         0.389321   
      7. B(C   9,H   5)                  1.0433         0.427522   
      8. B(C   9,C   8)                  1.6306         0.258152   
      9. B(C   9,H   6)                  1.0886         0.361930   
     10. A(H   4,C   0,C   7)          132.0503         0.343163   
     11. A(H   1,C   0,H   4)           92.2922         0.290842   
     12. A(H   1,C   0,C   7)          135.6575         0.329611   
     13. A(H   2,C   7,C   8)          103.4115         0.364714   
     14. A(C   0,C   7,H   2)          121.5603         0.360391   
     15. A(C   0,C   7,C   8)          135.0281         0.396807   
     16. A(H   3,C   8,C   7)          109.1714         0.344708   
     17. A(C   7,C   8,C   9)          134.2489         0.358400   
     18. A(H   3,C   8,C   9)          116.5797         0.309292   
     19. A(H   6,C   9,C   8)          140.6584         0.305684   
     20. A(H   5,C   9,C   8)          129.5852         0.314009   
     21. A(H   5,C   9,H   6)           89.7563         0.299075   
     22. D(H   2,C   7,C   0,H   4)    180.0000         0.014736   
     23. D(C   8,C   7,C   0,H   1)    180.0000         0.014736   
     24. D(H   2,C   7,C   0,H   1)      0.0000         0.014736   
     25. D(C   8,C   7,C   0,H   4)      0.0000         0.014736   
     26. D(H   3,C   8,C   7,H   2)      0.0000         0.016946   
     27. D(C   9,C   8,C   7,C   0)      0.0000         0.016946   
     28. D(H   3,C   8,C   7,C   0)    180.0000         0.016946   
     29. D(C   9,C   8,C   7,H   2)    180.0000         0.016946   
     30. D(H   6,C   9,C   8,C   7)      0.0000         0.005191   
     31. D(H   6,C   9,C   8,H   3)    180.0000         0.005191   
     32. D(H   5,C   9,C   8,C   7)    180.0000         0.005191   
     33. D(H   5,C   9,C   8,H   3)      0.0000         0.005191   
    -----------------------------------------------------------------

Number of atoms                         .... 10
Number of degrees of freedom            .... 33

         *************************************************************
         *                GEOMETRY OPTIMIZATION CYCLE   1            *
         *************************************************************
---------------------------------
CARTESIAN COORDINATES (ANGSTROEM)
---------------------------------
  C     -0.373886    0.000000   -0.469939
  H     -0.364967    0.000000   -1.592845
  H     -2.362046    0.000000    0.349413
  H     -2.413873    0.000000    2.378738
  H      0.681942    0.000000   -0.419275
  H     -0.315639    0.000000    4.199011
  H      0.850931    0.000000    3.248755
  C     -1.409873    0.000000    0.573396
  C     -1.405457    0.000000    2.024693
  C     -0.233977    0.000000    3.158929

----------------------------
CARTESIAN COORDINATES (A.U.)
----------------------------
  NO LB      ZA    FRAG     MASS         X           Y           Z
   0 C     6.0000    0    12.011   -0.706541    0.000000   -0.888056
   1 H     1.0000    0     1.008   -0.689688    0.000000   -3.010041
   2 H     1.0000    0     1.008   -4.463620    0.000000    0.660295
   3 H     1.0000    0     1.008   -4.561560    0.000000    4.495164
   4 H     1.0000    0     1.008    1.288684    0.000000   -0.792314
   5 H     1.0000    0     1.008   -0.596471    0.000000    7.934981
   6 H     1.0000    0     1.008    1.608026    0.000000    6.139257
   7 C     6.0000    0    12.011   -2.664274    0.000000    1.083561
   8 C     6.0000    0    12.011   -2.655929    0.000000    3.826116
   9 C     6.0000    0    12.011   -0.442152    0.000000    5.969512

--------------------------------
INTERNAL COORDINATES (ANGSTROEM)
--------------------------------
 C      0   0   0     0.000000000000     0.00000000     0.00000000
 H      1   0   0     1.122941516216     0.00000000     0.00000000
 H      1   2   0     2.150376753851   112.85236591     0.00000000
 H      3   1   2     2.029987129741   113.86029255   180.00000085
 H      1   2   3     1.057042492083    92.29222369   180.00000000
 H      4   3   1     2.777765390719   129.47951500     0.00000000
 H      6   4   3     1.504616573441    99.89219182     0.00000000
 C      3   1   2     0.978162570883    35.63452747   180.00000000
 C      4   3   1     1.068761614476    69.19134682     0.00000000
 C      6   4   3     1.043282450612    53.54687878     0.00000000

---------------------------
INTERNAL COORDINATES (A.U.)
---------------------------
 C      0   0   0     0.000000000000     0.00000000     0.00000000
 H      1   0   0     2.122051930059     0.00000000     0.00000000
 H      1   2   0     4.063623149528   112.85236591     0.00000000
 H      3   1   2     3.836119730595   113.86029255   180.00000085
 H      1   2   3     1.997520821954    92.29222369   180.00000000
 H      4   3   1     5.249215852744   129.47951500     0.00000000
 H      6   4   3     2.843313260362    99.89219182     0.00000000
 C      3   1   2     1.848459373421    35.63452747   180.00000000
 C      4   3   1     2.019666753808    69.19134682     0.00000000
 C      6   4   3     1.971518111982    53.54687878     0.00000000

---------------------
BASIS SET INFORMATION
---------------------
There are 2 groups of distinct atoms

 Group   1 Type C   : 7s4p1d contracted to 3s2p1d pattern {511/31/1}
 Group   2 Type H   : 4s1p contracted to 2s1p pattern {31/1}

Atom   0C    basis set group =>   1
Atom   1H    basis set group =>   2
Atom   2H    basis set group =>   2
Atom   3H    basis set group =>   2
Atom   4H    basis set group =>   2
Atom   5H    basis set group =>   2
Atom   6H    basis set group =>   2
Atom   7C    basis set group =>   1
Atom   8C    basis set group =>   1
Atom   9C    basis set group =>   1
---------------------------------
AUXILIARY/J BASIS SET INFORMATION
---------------------------------
There are 2 groups of distinct atoms

 Group   1 Type C   : 12s5p4d2f1g contracted to 6s4p3d1f1g pattern {711111/2111/211/2/1}
 Group   2 Type H   : 5s2p1d contracted to 3s1p1d pattern {311/2/1}

Atom   0C    basis set group =>   1
Atom   1H    basis set group =>   2
Atom   2H    basis set group =>   2
Atom   3H    basis set group =>   2
Atom   4H    basis set group =>   2
Atom   5H    basis set group =>   2
Atom   6H    basis set group =>   2
Atom   7C    basis set group =>   1
Atom   8C    basis set group =>   1
Atom   9C    basis set group =>   1
------------------------------------------------------------------------------
                           ORCA GTO INTEGRAL CALCULATION
                           -- RI-GTO INTEGRALS CHOSEN --
------------------------------------------------------------------------------
------------------------------------------------------------------------------
                   ___                                                        
                  /   \      - P O W E R E D   B Y -                         
                 /     \                                                     
                 |  |  |   _    _      __       _____    __    __             
                 |  |  |  | |  | |    /  \     |  _  \  |  |  /  |          
                  \  \/   | |  | |   /    \    | | | |  |  | /  /          
                 / \  \   | |__| |  /  /\  \   | |_| |  |  |/  /          
                |  |  |   |  __  | /  /__\  \  |    /   |      \           
                |  |  |   | |  | | |   __   |  |    \   |  |\   \          
                \     /   | |  | | |  |  |  |  | |\  \  |  | \   \       
                 \___/    |_|  |_| |__|  |__|  |_| \__\ |__|  \__/        
                                                                              
                      - O R C A' S   B I G   F R I E N D -                    
                                      &                                       
                       - I N T E G R A L  F E E D E R -                       
                                                                              
 v1 FN, 2020, v2 2021                                                         
------------------------------------------------------------------------------


Reading SHARK input file run.SHARKINP.tmp ... ok
----------------------
SHARK INTEGRAL PACKAGE
----------------------

Number of atoms                             ...     10
Number of basis functions                   ...     86
Number of shells                            ...     42
Maximum angular momentum                    ...      2
Integral batch strategy                     ... SHARK/LIBINT Hybrid
RI-J (if used) integral strategy            ... SPLIT-RIJ (Revised 2003 algorithm where possible)
Printlevel                                  ...      1
Contraction scheme used                     ... SEGMENTED contraction
Coulomb Range Separation                    ... NOT USED
Exchange Range Separation                   ... NOT USED
Finite Nucleus Model                        ... NOT USED
Auxiliary Coulomb fitting basis             ... AVAILABLE
   # of basis functions in Aux-J            ...    262
   # of shells in Aux-J                     ...     90
   Maximum angular momentum in Aux-J        ...      4
Auxiliary J/K fitting basis                 ... NOT available
Auxiliary Correlation fitting basis         ... NOT available
Auxiliary 'external' fitting basis          ... NOT available
Integral threshold                          ...     2.500000e-11
Primitive cut-off                           ...     2.500000e-12
Primitive pair pre-selection threshold      ...     2.500000e-12

Calculating pre-screening integrals         ... done (  0.0 sec) Dimension = 42
Organizing shell pair data                  ... done (  0.0 sec)
Shell pair information
Total number of shell pairs                 ...       903
Shell pairs after pre-screening             ...       881
Total number of primitive shell pairs       ...      3151
Primitive shell pairs kept                  ...      2464
          la=0 lb=0:    294 shell pairs
          la=1 lb=0:    325 shell pairs
          la=1 lb=1:    102 shell pairs
          la=2 lb=0:     94 shell pairs
          la=2 lb=1:     56 shell pairs
          la=2 lb=2:     10 shell pairs

Calculating one electron integrals          ... done (  0.0 sec)
Calculating RI/J V-Matrix + Cholesky decomp.... done (  0.0 sec)
Calculating Nuclear repulsion               ... done (  0.0 sec) ENN=     97.046765286035 Eh

SHARK setup successfully completed in   0.2 seconds

Maximum memory used throughout the entire GTOINT-calculation: 9.6 MB
-------------------------------------------------------------------------------
                                 ORCA SCF
-------------------------------------------------------------------------------

------------
SCF SETTINGS
------------
Hamiltonian:
 Density Functional     Method          .... DFT(GTOs)
 Exchange Functional    Exchange        .... B88
   X-Alpha parameter    XAlpha          ....  0.666667
   Becke's b parameter  XBeta           ....  0.004200
 Correlation Functional Correlation     .... LYP
 LDA part of GGA corr.  LDAOpt          .... VWN-5
 Gradients option       PostSCFGGA      .... off
 Hybrid DFT is turned on
   Fraction HF Exchange ScalHFX         ....  0.200000
   Scaling of DF-GGA-X  ScalDFX         ....  0.720000
   Scaling of DF-GGA-C  ScalDFC         ....  0.810000
   Scaling of DF-LDA-C  ScalLDAC        ....  1.000000
   Perturbative correction              ....  0.000000
   Density functional embedding theory  .... OFF
   NL short-range parameter             ....  4.800000
 RI-approximation to the Coulomb term is turned on
   Number of AuxJ basis functions       .... 262
   RIJ-COSX (HFX calculated with COS-X)).... on


General Settings:
 Integral files         IntName         .... run
 Hartree-Fock type      HFTyp           .... RHF
 Total Charge           Charge          ....    0
 Multiplicity           Mult            ....    1
 Number of Electrons    NEL             ....   30
 Basis Dimension        Dim             ....   86
 Nuclear Repulsion      ENuc            ....     97.0467652860 Eh

Convergence Acceleration:
 DIIS                   CNVDIIS         .... on
   Start iteration      DIISMaxIt       ....    12
   Startup error        DIISStart       ....  0.200000
   # of expansion vecs  DIISMaxEq       ....     5
   Bias factor          DIISBfac        ....   1.050
   Max. coefficient     DIISMaxC        ....  10.000
 Trust-Rad. Augm. Hess. CNVTRAH         .... auto
   Auto Start mean grad. ratio tolernc. ....  1.125000
   Auto Start start iteration           ....    20
   Auto Start num. interpolation iter.  ....    10
   Max. Number of Micro iterations      ....    16
   Max. Number of Macro iterations      .... Maxiter - #DIIS iter
   Number of Davidson start vectors     ....     2
   Converg. threshold I  (grad. norm)   ....   1.000e-05
   Converg. threshold II (energy diff.) ....   1.000e-08
   Grad. Scal. Fac. for Micro threshold ....   0.100
   Minimum threshold for Micro iter.    ....   0.010
   NR start threshold (gradient norm)   ....   0.001
   Initial trust radius                 ....   0.400
   Minimum AH scaling param. (alpha)    ....   1.000
   Maximum AH scaling param. (alpha)    .... 1000.000
   Orbital update algorithm             .... Taylor
   White noise on init. David. guess    .... on
   Maximum white noise                  ....   0.010
   Quad. conv. algorithm                .... NR
 SOSCF                  CNVSOSCF        .... on
   Start iteration      SOSCFMaxIt      ....   150
   Startup grad/error   SOSCFStart      ....  0.003300
 Level Shifting         CNVShift        .... on
   Level shift para.    LevelShift      ....    0.2500
   Turn off err/grad.   ShiftErr        ....    0.0010
 Zerner damping         CNVZerner       .... off
 Static damping         CNVDamp         .... on
   Fraction old density DampFac         ....    0.7000
   Max. Damping (<1)    DampMax         ....    0.9800
   Min. Damping (>=0)   DampMin         ....    0.0000
   Turn off err/grad.   DampErr         ....    0.1000
 Fernandez-Rico         CNVRico         .... off

SCF Procedure:
 Maximum # iterations   MaxIter         ....   125
 SCF integral mode      SCFMode         .... Direct
   Integral package                     .... SHARK and LIBINT hybrid scheme
 Reset frequency        DirectResetFreq ....    20
 Integral Threshold     Thresh          ....  2.500e-11 Eh
 Primitive CutOff       TCut            ....  2.500e-12 Eh

Convergence Tolerance:
 Convergence Check Mode ConvCheckMode   .... Total+1el-Energy
 Convergence forced     ConvForced      .... 0
 Energy Change          TolE            ....  1.000e-08 Eh
 1-El. energy change                    ....  1.000e-05 Eh
 Orbital Gradient       TolG            ....  1.000e-05
 Orbital Rotation angle TolX            ....  1.000e-05
 DIIS Error             TolErr          ....  5.000e-07


Diagonalization of the overlap matrix:
Smallest eigenvalue                        ... 2.969e-03
Time for diagonalization                   ...    0.005 sec
Threshold for overlap eigenvalues          ... 1.000e-08
Number of eigenvalues below threshold      ... 0
Time for construction of square roots      ...    0.001 sec
Total time needed                          ...    0.006 sec

Time for model grid setup =    0.178 sec

------------------------------
INITIAL GUESS: MODEL POTENTIAL
------------------------------
Loading Hartree-Fock densities                     ... done
Calculating cut-offs                               ... done
Initializing the effective Hamiltonian             ... done
Setting up the integral package (SHARK)            ... done
Starting the Coulomb interaction                   ... done (   0.0 sec)
Reading the grid                                   ... done
Mapping shells                                     ... done
Starting the XC term evaluation                    ... done (   0.1 sec)
  promolecular density results
     # of electrons  =     29.996453913
     EX              =    -22.200304282
     EC              =     -0.942040270
     EX+EC           =    -23.142344552
Transforming the Hamiltonian                       ... done (   0.0 sec)
Diagonalizing the Hamiltonian                      ... done (   0.0 sec)
Back transforming the eigenvectors                 ... done (   0.0 sec)
Now organizing SCF variables                       ... done
                      ------------------
                      INITIAL GUESS DONE (   0.3 sec)
                      ------------------
-------------------
DFT GRID GENERATION
-------------------

General Integration Accuracy     IntAcc      ... 4.388
Radial Grid Type                 RadialGrid  ... OptM3 with GC (2021)
Angular Grid (max. ang.)         AngularGrid ... 4 (Lebedev-302)
Angular grid pruning method      GridPruning ... 4 (adaptive)
Weight generation scheme         WeightScheme... Becke
Basis function cutoff            BFCut       ... 1.0000e-11
Integration weight cutoff        WCut        ... 1.0000e-14
Angular grids for H and He will be reduced by one unit
Partially contracted basis set               ... off
Rotationally invariant grid construction     ... off

Total number of grid points                  ...    43853
Total number of batches                      ...      690
Average number of points per batch           ...       63
Average number of grid points per atom       ...     4385
Time for grid setup =    0.367 sec

--------------------
COSX GRID GENERATION
--------------------

GRIDX 1
-------
General Integration Accuracy     IntAcc      ... 3.816
Radial Grid Type                 RadialGrid  ... OptM3 with GC (2021)
Angular Grid (max. ang.)         AngularGrid ... 1 (Lebedev-50)
Angular grid pruning method      GridPruning ... 4 (adaptive)
Weight generation scheme         WeightScheme... Becke
Basis function cutoff            BFCut       ... 1.0000e-11
Integration weight cutoff        WCut        ... 1.0000e-14
Angular grids for H and He will be reduced by one unit
Partially contracted basis set               ... on
Rotationally invariant grid construction     ... off

Total number of grid points                  ...     5622
Total number of batches                      ...       93
Average number of points per batch           ...       60
Average number of grid points per atom       ...      562
UseSFitting                                  ... on

GRIDX 2
-------
General Integration Accuracy     IntAcc      ... 4.020
Radial Grid Type                 RadialGrid  ... OptM3 with GC (2021)
Angular Grid (max. ang.)         AngularGrid ... 2 (Lebedev-110)
Angular grid pruning method      GridPruning ... 4 (adaptive)
Weight generation scheme         WeightScheme... Becke
Basis function cutoff            BFCut       ... 1.0000e-11
Integration weight cutoff        WCut        ... 1.0000e-14
Angular grids for H and He will be reduced by one unit
Partially contracted basis set               ... on
Rotationally invariant grid construction     ... off

Total number of grid points                  ...    12071
Total number of batches                      ...      195
Average number of points per batch           ...       61
Average number of grid points per atom       ...     1207
UseSFitting                                  ... on

GRIDX 3
-------
General Integration Accuracy     IntAcc      ... 4.338
Radial Grid Type                 RadialGrid  ... OptM3 with GC (2021)
Angular Grid (max. ang.)         AngularGrid ... 3 (Lebedev-194)
Angular grid pruning method      GridPruning ... 4 (adaptive)
Weight generation scheme         WeightScheme... Becke
Basis function cutoff            BFCut       ... 1.0000e-11
Integration weight cutoff        WCut        ... 1.0000e-14
Angular grids for H and He will be reduced by one unit
Partially contracted basis set               ... on
Rotationally invariant grid construction     ... off

Total number of grid points                  ...    26570
Total number of batches                      ...      420
Average number of points per batch           ...       63
Average number of grid points per atom       ...     2657
UseSFitting                                  ... on

Time for X-Grid setup             =    0.196 sec

--------------
SCF ITERATIONS
--------------
ITER       Energy         Delta-E        Max-DP      RMS-DP      [F,P]     Damp
               ***  Starting incremental Fock matrix formation  ***
  0   -155.5589229105   0.000000000000 0.04826958  0.00218948  0.1049668 0.7000
  1   -155.5908844924  -0.031961581880 0.03195290  0.00166677  0.0604964 0.7000
                               ***Turning on DIIS***
  2   -155.6061307321  -0.015246239662 0.05012809  0.00311215  0.0283964 0.0000
  3   -155.6278815487  -0.021750816600 0.02394643  0.00114517  0.0328885 0.0000
  4   -155.6331260011  -0.005244452402 0.00403348  0.00026994  0.0054863 0.0000
                      *** Initiating the SOSCF procedure ***
                           *** Shutting down DIIS ***
                      *** Re-Reading the Fockian *** 
                      *** Removing any level shift *** 
ITER      Energy       Delta-E        Grad      Rot      Max-DP    RMS-DP
  5   -155.63333106  -0.0002050588  0.000559  0.000559  0.001430  0.000099
               *** Restarting incremental Fock matrix formation ***
  6   -155.63350939  -0.0001783333  0.000326  0.001269  0.001287  0.000080
  7   -155.63350968  -0.0000002856  0.000420  0.001439  0.001115  0.000038
  8   -155.63351117  -0.0000014923  0.000375  0.001051  0.001060  0.000041
  9   -155.63351123  -0.0000000574  0.000229  0.000358  0.000526  0.000021
 10   -155.63351232  -0.0000010953  0.000055  0.000214  0.000204  0.000008
 11   -155.63351229   0.0000000388  0.000079  0.000123  0.000171  0.000005
 12   -155.63351236  -0.0000000770  0.000023  0.000059  0.000089  0.000003
 13   -155.63351236   0.0000000032  0.000027  0.000032  0.000048  0.000002
                  ***Gradient check signals convergence***
              ***Rediagonalizing the Fockian in SOSCF/NRSCF***

               *****************************************************
               *                     SUCCESS                       *
               *           SCF CONVERGED AFTER  14 CYCLES          *
               *****************************************************

Old exchange energy                            =     -4.511218535 Eh
New exchange energy                            =     -4.511183504 Eh
Exchange energy change after final integration =      0.000035031 Eh
Total energy after final integration           =   -155.633477336 Eh
Final COS-X integration done in                =     1.255 sec

----------------
TOTAL SCF ENERGY
----------------

Total Energy       :         -155.63347734 Eh           -4235.00222 eV

Components:
Nuclear Repulsion  :           97.04676529 Eh            2640.77674 eV
Electronic Energy  :         -252.68024262 Eh           -6875.77896 eV
One Electron Energy:         -399.56927478 Eh          -10872.83273 eV
Two Electron Energy:          146.88903216 Eh            3997.05377 eV
Max COSX asymmetry :            0.00000149 Eh               0.00004 eV

Virial components:
Potential Energy   :         -309.04803066 Eh           -8409.62445 eV
Kinetic Energy     :          153.41455332 Eh            4174.62223 eV
Virial Ratio       :            2.01446358


DFT components:
N(Alpha)           :       15.000001657378 electrons
N(Beta)            :       15.000001657378 electrons
N(Total)           :       30.000003314756 electrons
E(X)               :      -17.933143586683 Eh       
E(C)               :       -1.125211978276 Eh       
E(XC)              :      -19.058355564959 Eh       
DFET-embed. en.    :        0.000000000000 Eh       

---------------
SCF CONVERGENCE
---------------

  Last Energy change         ...   -7.7834e-09  Tolerance :   1.0000e-08
  Last MAX-Density change    ...    3.5527e-15  Tolerance :   1.0000e-07
  Last RMS-Density change    ...    6.9458e-17  Tolerance :   5.0000e-09
  Last Orbital Gradient      ...    8.0426e-07  Tolerance :   1.0000e-05
  Last Orbital Rotation      ...    2.0204e-06  Tolerance :   1.0000e-05

             **** THE GBW FILE WAS UPDATED (run.gbw) ****
             **** DENSITY run.scfp WAS UPDATED ****
             **** ENERGY FILE WAS UPDATED (run.en.tmp) ****
             **** THE GBW FILE WAS UPDATED (run.gbw) ****
             **** DENSITY run.scfp WAS UPDATED ****
----------------
ORBITAL ENERGIES
----------------

  NO   OCC          E(Eh)            E(eV) 
   0   2.0000     -10.230637      -278.3898 
   1   2.0000     -10.215291      -277.9722 
   2   2.0000     -10.209183      -277.8060 
   3   2.0000     -10.207806      -277.7685 
   4   2.0000      -0.774506       -21.0754 
   5   2.0000      -0.688889       -18.7456 
   6   2.0000      -0.649909       -17.6849 
   7   2.0000      -0.555326       -15.1112 
   8   2.0000      -0.474601       -12.9145 
   9   2.0000      -0.435147       -11.8409 
  10   2.0000      -0.390792       -10.6340 
  11   2.0000      -0.359023        -9.7695 
  12   2.0000      -0.346758        -9.4358 
  13   2.0000      -0.304510        -8.2862 
  14   2.0000      -0.209472        -5.7000 
  15   0.0000      -0.082377        -2.2416 
  16   0.0000       0.047531         1.2934 
  17   0.0000       0.073811         2.0085 
  18   0.0000       0.079773         2.1707 
  19   0.0000       0.098058         2.6683 
  20   0.0000       0.136208         3.7064 
  21   0.0000       0.151894         4.1332 
  22   0.0000       0.156660         4.2629 
  23   0.0000       0.189952         5.1689 
  24   0.0000       0.272009         7.4018 
  25   0.0000       0.329868         8.9762 
  26   0.0000       0.337040         9.1713 
  27   0.0000       0.393523        10.7083 
  28   0.0000       0.445250        12.1159 
  29   0.0000       0.484020        13.1709 
  30   0.0000       0.506899        13.7934 
  31   0.0000       0.534457        14.5433 
  32   0.0000       0.566866        15.4252 
  33   0.0000       0.592595        16.1253 
  34   0.0000       0.618872        16.8404 
  35   0.0000       0.623155        16.9569 
  36   0.0000       0.626545        17.0492 
  37   0.0000       0.642720        17.4893 
  38   0.0000       0.657693        17.8967 
  39   0.0000       0.680861        18.5272 
  40   0.0000       0.688801        18.7432 
  41   0.0000       0.728099        19.8126 
  42   0.0000       0.738502        20.0956 
  43   0.0000       0.747880        20.3509 
  44   0.0000       0.785535        21.3755 
  45   0.0000       0.850209        23.1354 
  46   0.0000       0.904586        24.6150 
  47   0.0000       1.165301        31.7095 
  48   0.0000       1.181877        32.1605 
  49   0.0000       1.236236        33.6397 
  50   0.0000       1.245307        33.8865 
  51   0.0000       1.276656        34.7396 
  52   0.0000       1.291453        35.1422 
  53   0.0000       1.385286        37.6955 
  54   0.0000       1.565102        42.5886 
  55   0.0000       1.573640        42.8209 
  56   0.0000       1.661888        45.2223 
  57   0.0000       1.678280        45.6683 
  58   0.0000       1.764342        48.0102 
  59   0.0000       1.784933        48.5705 
  60   0.0000       1.820004        49.5248 
  61   0.0000       1.827950        49.7410 
  62   0.0000       1.852504        50.4092 
  63   0.0000       1.911821        52.0233 
  64   0.0000       1.961290        53.3694 
  65   0.0000       1.997377        54.3514 
  66   0.0000       2.005393        54.5695 
  67   0.0000       2.025352        55.1126 
  68   0.0000       2.044954        55.6460 
  69   0.0000       2.088965        56.8436 
  70   0.0000       2.114051        57.5263 
  71   0.0000       2.160755        58.7971 
  72   0.0000       2.196710        59.7755 
  73   0.0000       2.311899        62.9100 
  74   0.0000       2.355306        64.0911 
  75   0.0000       2.383142        64.8486 
  76   0.0000       2.525271        68.7161 
  77   0.0000       2.540760        69.1376 
  78   0.0000       2.593482        70.5722 
  79   0.0000       2.716488        73.9194 
  80   0.0000       2.828118        76.9570 
  81   0.0000       2.849044        77.5264 
  82   0.0000       3.028604        82.4125 
  83   0.0000       3.106231        84.5249 
  84   0.0000       3.191566        86.8469 
  85   0.0000       3.417157        92.9856 

                    ********************************
                    * MULLIKEN POPULATION ANALYSIS *
                    ********************************

-----------------------
MULLIKEN ATOMIC CHARGES
-----------------------
   0 C :   -0.042500
   1 H :    0.030934
   2 H :   -0.041775
   3 H :    0.015794
   4 H :    0.008473
   5 H :    0.007592
   6 H :    0.019241
   7 C :    0.073672
   8 C :   -0.021917
   9 C :   -0.049514
Sum of atomic charges:    0.0000000

--------------------------------
MULLIKEN REDUCED ORBITAL CHARGES
--------------------------------
  0 C s       :     3.157320  s :     3.157320
      pz      :     0.935806  p :     2.864037
      px      :     0.951932
      py      :     0.976299
      dz2     :     0.009512  d :     0.021143
      dxz     :     0.003748
      dyz     :     0.001540
      dx2y2   :     0.004925
      dxy     :     0.001418
  1 H s       :     0.945263  s :     0.945263
      pz      :     0.013971  p :     0.023803
      px      :     0.005227
      py      :     0.004605
  2 H s       :     1.012197  s :     1.012197
      pz      :     0.006924  p :     0.029578
      px      :     0.015966
      py      :     0.006688
  3 H s       :     0.960127  s :     0.960127
      pz      :     0.005482  p :     0.024079
      px      :     0.013100
      py      :     0.005496
  4 H s       :     0.965188  s :     0.965188
      pz      :     0.006117  p :     0.026339
      px      :     0.014849
      py      :     0.005373
  5 H s       :     0.964875  s :     0.964875
      pz      :     0.014695  p :     0.027533
      px      :     0.006945
      py      :     0.005893
  6 H s       :     0.955265  s :     0.955265
      pz      :     0.005867  p :     0.025494
      px      :     0.014456
      py      :     0.005171
  7 C s       :     3.086942  s :     3.086942
      pz      :     0.921319  p :     2.806009
      px      :     0.886212
      py      :     0.998478
      dz2     :     0.011983  d :     0.033377
      dxz     :     0.008866
      dyz     :     0.005919
      dx2y2   :     0.005256
      dxy     :     0.001353
  8 C s       :     3.156442  s :     3.156442
      pz      :     0.925078  p :     2.836751
      px      :     0.906999
      py      :     1.004674
      dz2     :     0.009816  d :     0.028724
      dxz     :     0.009558
      dyz     :     0.004856
      dx2y2   :     0.003784
      dxy     :     0.000709
  9 C s       :     3.175683  s :     3.175683
      pz      :     0.942094  p :     2.855237
      px      :     0.942993
      py      :     0.970150
      dz2     :     0.009959  d :     0.018595
      dxz     :     0.002924
      dyz     :     0.000606
      dx2y2   :     0.004335
      dxy     :     0.000772


                     *******************************
                     * LOEWDIN POPULATION ANALYSIS *
                     *******************************

----------------------
LOEWDIN ATOMIC CHARGES
----------------------
   0 C :   -0.037030
   1 H :    0.034134
   2 H :    0.006363
   3 H :    0.027096
   4 H :    0.014127
   5 H :    0.010959
   6 H :    0.025815
   7 C :   -0.019939
   8 C :   -0.012774
   9 C :   -0.048750

-------------------------------
LOEWDIN REDUCED ORBITAL CHARGES
-------------------------------
  0 C s       :     2.910842  s :     2.910842
      pz      :     1.049439  p :     3.073018
      px      :     1.067210
      py      :     0.956370
      dz2     :     0.023833  d :     0.053171
      dxz     :     0.011202
      dyz     :     0.003061
      dx2y2   :     0.011909
      dxy     :     0.003165
  1 H s       :     0.898458  s :     0.898458
      pz      :     0.041230  p :     0.067408
      px      :     0.012611
      py      :     0.013567
  2 H s       :     0.902990  s :     0.902990
      pz      :     0.020220  p :     0.090647
      px      :     0.048230
      py      :     0.022196
  3 H s       :     0.900293  s :     0.900293
      pz      :     0.014520  p :     0.072612
      px      :     0.041531
      py      :     0.016561
  4 H s       :     0.906870  s :     0.906870
      pz      :     0.016229  p :     0.079003
      px      :     0.045544
      py      :     0.017231
  5 H s       :     0.904958  s :     0.904958
      pz      :     0.046606  p :     0.084083
      px      :     0.018624
      py      :     0.018853
  6 H s       :     0.898208  s :     0.898208
      pz      :     0.015844  p :     0.075977
      px      :     0.044459
      py      :     0.015675
  7 C s       :     2.857409  s :     2.857409
      pz      :     1.042157  p :     3.076649
      px      :     1.063928
      py      :     0.970564
      dz2     :     0.031993  d :     0.085881
      dxz     :     0.025195
      dyz     :     0.011944
      dx2y2   :     0.013287
      dxy     :     0.003461
  8 C s       :     2.919176  s :     2.919176
      pz      :     1.020688  p :     3.024701
      px      :     1.019518
      py      :     0.984495
      dz2     :     0.024310  d :     0.068896
      dxz     :     0.024774
      dyz     :     0.009554
      dx2y2   :     0.008466
      dxy     :     0.001791
  9 C s       :     2.938643  s :     2.938643
      pz      :     1.056671  p :     3.066197
      px      :     1.061460
      py      :     0.948066
      dz2     :     0.022822  d :     0.043909
      dxz     :     0.008095
      dyz     :     0.001681
      dx2y2   :     0.009549
      dxy     :     0.001763


                      *****************************
                      * MAYER POPULATION ANALYSIS *
                      *****************************

  NA   - Mulliken gross atomic population
  ZA   - Total nuclear charge
  QA   - Mulliken gross atomic charge
  VA   - Mayer's total valence
  BVA  - Mayer's bonded valence
  FA   - Mayer's free valence

  ATOM       NA         ZA         QA         VA         BVA        FA
  0 C      6.0425     6.0000    -0.0425     3.8886     3.8886     0.0000
  1 H      0.9691     1.0000     0.0309     0.9780     0.9780     0.0000
  2 H      1.0418     1.0000    -0.0418     0.9798     0.9798    -0.0000
  3 H      0.9842     1.0000     0.0158     0.9739     0.9739     0.0000
  4 H      0.9915     1.0000     0.0085     0.9828     0.9828     0.0000
  5 H      0.9924     1.0000     0.0076     0.9791     0.9791    -0.0000
  6 H      0.9808     1.0000     0.0192     0.9856     0.9856    -0.0000
  7 C      5.9263     6.0000     0.0737     4.0000     4.0000     0.0000
  8 C      6.0219     6.0000    -0.0219     3.9777     3.9777     0.0000
  9 C      6.0495     6.0000    -0.0495     3.9057     3.9057     0.0000

  Mayer bond orders larger than 0.100000
B(  0-C ,  1-H ) :   0.9732 B(  0-C ,  4-H ) :   0.9773 B(  0-C ,  7-C ) :   1.7334 
B(  0-C ,  9-C ) :   0.2269 B(  2-H ,  7-C ) :   0.9543 B(  3-H ,  8-C ) :   0.9508 
B(  5-H ,  9-C ) :   0.9751 B(  6-H ,  9-C ) :   0.9793 B(  7-C ,  8-C ) :   1.2705 
B(  8-C ,  9-C ) :   1.7086 

-------
TIMINGS
-------

Total SCF time: 0 days 0 hours 0 min 12 sec 

Total time                  ....      12.720 sec
Sum of individual times     ....      12.591 sec  ( 99.0%)

Fock matrix formation       ....      11.676 sec  ( 91.8%)
  Split-RI-J                ....       0.794 sec  (  6.8% of F)
  Chain of spheres X        ....       8.228 sec  ( 70.5% of F)
  XC integration            ....       2.633 sec  ( 22.6% of F)
    Basis function eval.    ....       1.040 sec  ( 39.5% of XC)
    Density eval.           ....       0.609 sec  ( 23.1% of XC)
    XC-Functional eval.     ....       0.271 sec  ( 10.3% of XC)
    XC-Potential eval.      ....       0.592 sec  ( 22.5% of XC)
Diagonalization             ....       0.010 sec  (  0.1%)
Density matrix formation    ....       0.001 sec  (  0.0%)
Population analysis         ....       0.002 sec  (  0.0%)
Initial guess               ....       0.146 sec  (  1.1%)
Orbital Transformation      ....       0.000 sec  (  0.0%)
Orbital Orthonormalization  ....       0.000 sec  (  0.0%)
DIIS solution               ....       0.006 sec  (  0.0%)
SOSCF solution              ....       0.009 sec  (  0.1%)
Grid generation             ....       0.742 sec  (  5.8%)

Maximum memory used throughout the entire SCF-calculation: 51.2 MB

-------------------------   --------------------
FINAL SINGLE POINT ENERGY      -155.633477335880
-------------------------   --------------------

------------------------------------------------------------------------------
                         ORCA SCF GRADIENT CALCULATION
------------------------------------------------------------------------------

 ... reading COSX grid (gridx3)
Gradient of the Kohn-Sham DFT energy:
Kohn-Sham wavefunction type      ... RKS
Hartree-Fock exchange scaling    ...    0.200
Number of operators              ...    1
Number of atoms                  ...   10
Basis set dimensions             ...   86
Integral neglect threshold       ... 2.5e-11
Integral primitive cutoff        ... 2.5e-12
SHARK Integral package           ... ON

Nuc. rep. gradient       (SHARK) ... done (  0.0 sec)
HCore & Overlap gradient (SHARK) ... done (  0.0 sec)
RI-J gradient            (SHARK) ... done (  0.2 sec)
COSX-gradient                    ... done (  1.6 sec)
Exchange-correlation gradient    ... done

------------------
CARTESIAN GRADIENT
------------------

   1   C   :    0.061311330   -0.000000007   -0.031979488
   2   H   :    0.039937485    0.000000000   -0.011957114
   3   H   :    0.103531138    0.000000002    0.047070686
   4   H   :    0.012131502    0.000000002   -0.019397014
   5   H   :   -0.031642149    0.000000000   -0.038985057
   6   H   :    0.048331049   -0.000000003   -0.043654473
   7   H   :   -0.015219896   -0.000000002    0.046505709
   8   C   :   -0.167598887    0.000000014    0.027355798
   9   C   :   -0.130755832   -0.000000006   -0.082729819
  10   C   :    0.080026995    0.000000011    0.107722800

Difference to translation invariance:
           :    0.0000527358    0.0000000101   -0.0000479719

Difference to rotation invariance:
           :   -0.0000000300    0.0001926106   -0.0000000384

Norm of the cartesian gradient     ...    0.3161046568
RMS gradient                       ...    0.0577125503
MAX gradient                       ...    0.1675988866

-------
TIMINGS
-------

Total SCF gradient time            ...        3.073 sec

One electron gradient       ....       0.033 sec  (  1.1%)
RI-J Coulomb gradient       ....       0.209 sec  (  6.8%)
COSX gradient               ....       1.621 sec  ( 52.7%)
XC gradient                 ....       1.077 sec  ( 35.0%)

Maximum memory used throughout the entire SCFGRAD-calculation: 40.0 MB
------------------------------------------------------------------------------
                         ORCA GEOMETRY RELAXATION STEP
------------------------------------------------------------------------------

Reading the OPT-File                    .... done
Getting information on internals        .... done
Copying old internal coords+grads       .... done
Making the new internal coordinates     .... (new redundants).... done
Validating the new internal coordinates .... (new redundants).... done
Calculating the B-matrix                .... done
Calculating the G,G- and P matrices     .... done
Transforming gradient to internals      .... done
Projecting the internal gradient        .... done
Number of atoms                         ....  10
Number of internal coordinates          ....  33
Current Energy                          ....  -155.633477336 Eh
Current gradient norm                   ....     0.316104657 Eh/bohr
Maximum allowed component of the step   ....  0.300
Current trust radius                    ....  0.300
Evaluating the initial hessian          ....  (Almloef) done
Projecting the Hessian                  .... done
Forming the augmented Hessian           .... done
Diagonalizing the augmented Hessian     .... done
Last element of RFO vector              ....  0.878561565
Lowest eigenvalues of augmented Hessian:
 -0.136476352  0.005190598  0.005190598  0.010747587  0.014736171
Length of the computed step             ....  0.543649005
Warning: the length of the step is outside the trust region - taking restricted step instead
The input lambda is                     ....    -0.136476
   iter:   1  x=   -0.291322  g=    1.327476 f(x)=     0.205554
   iter:   2  x=   -0.428980  g=    0.535580 f(x)=     0.073727
   iter:   3  x=   -0.495762  g=    0.289102 f(x)=     0.019307
   iter:   4  x=   -0.506110  g=    0.223588 f(x)=     0.002314
   iter:   5  x=   -0.506312  g=    0.215286 f(x)=     0.000043
   iter:   6  x=   -0.506312  g=    0.215129 f(x)=     0.000000
   iter:   7  x=   -0.506312  g=    0.215129 f(x)=     0.000000
The output lambda is                    ....    -0.506312 (7 iterations)
The final length of the internal step   ....  0.300000000
Converting the step to cartesian space:
 Initial RMS(Int)=    0.0522232968
Transforming coordinates:
 Iter   0:  RMS(Cart)=    0.0989112991 RMS(Int)=    1.5476906596
 Iter   1:  RMS(Cart)=    0.0019509031 RMS(Int)=    0.0014095504
 Iter   2:  RMS(Cart)=    0.0000717016 RMS(Int)=    0.0000741259
 Iter   3:  RMS(Cart)=    0.0000052119 RMS(Int)=    0.0000044354
 Iter   4:  RMS(Cart)=    0.0000003496 RMS(Int)=    0.0000002173
 Iter   5:  RMS(Cart)=    0.0000000193 RMS(Int)=    0.0000000167
done
Storing new coordinates                 .... done

                                .--------------------.
          ----------------------|Geometry convergence|-------------------------
          Item                value                   Tolerance       Converged
          ---------------------------------------------------------------------
          RMS gradient        0.0446549693            0.0001000000      NO
          MAX gradient        0.1581912937            0.0003000000      NO
          RMS step            0.0522232968            0.0020000000      NO
          MAX step            0.2069310389            0.0040000000      NO
          ........................................................
          Max(Bonds)      0.1095      Max(Angles)    4.40
          Max(Dihed)        0.00      Max(Improp)    0.00
          ---------------------------------------------------------------------

The optimization has not yet converged - more geometry cycles are needed


    ---------------------------------------------------------------------------
                         Redundant Internal Coordinates
                            (Angstroem and degrees)

        Definition                    Value    dE/dq     Step     New-Value
    ----------------------------------------------------------------------------
     1. B(H   1,C   0)                1.1229  0.012269 -0.0079    1.1151   
     2. B(H   4,C   0)                1.0570 -0.033477  0.0194    1.0765   
     3. B(C   7,H   2)                0.9782 -0.111556  0.0563    1.0344   
     4. B(C   7,C   0)                1.4703  0.107870 -0.0588    1.4116   
     5. B(C   8,C   7)                1.4513  0.008455 -0.0045    1.4469   
     6. B(C   8,H   3)                1.0688 -0.017865  0.0106    1.0793   
     7. B(C   9,H   5)                1.0433 -0.047297  0.0268    1.0701   
     8. B(C   9,C   8)                1.6306  0.158191 -0.1095    1.5211   
     9. B(C   9,H   6)                1.0886 -0.011338  0.0069    1.0955   
    10. A(H   4,C   0,C   7)          132.05  0.021646   -1.53    130.53   
    11. A(H   1,C   0,H   4)           92.29 -0.053095    3.75     96.04   
    12. A(H   1,C   0,C   7)          135.66  0.031449   -2.22    133.44   
    13. A(H   2,C   7,C   8)          103.41 -0.032346    2.11    105.52   
    14. A(C   0,C   7,H   2)          121.56  0.008535   -0.58    120.98   
    15. A(C   0,C   7,C   8)          135.03  0.023811   -1.53    133.50   
    16. A(H   3,C   8,C   7)          109.17 -0.023260    1.57    110.74   
    17. A(C   7,C   8,C   9)          134.25  0.017674   -1.17    133.08   
    18. A(H   3,C   8,C   9)          116.58  0.005587   -0.39    116.19   
    19. A(H   6,C   9,C   8)          140.66  0.035883   -2.55    138.11   
    20. A(H   5,C   9,C   8)          129.59  0.026178   -1.85    127.74   
    21. A(H   5,C   9,H   6)           89.76 -0.062061    4.40     94.15   
    22. D(H   2,C   7,C   0,H   4)    180.00  0.000000   -0.00    180.00   
    23. D(C   8,C   7,C   0,H   1)    180.00 -0.000000    0.00    180.00   
    24. D(H   2,C   7,C   0,H   1)      0.00  0.000000   -0.00     -0.00   
    25. D(C   8,C   7,C   0,H   4)      0.00 -0.000000    0.00      0.00   
    26. D(H   3,C   8,C   7,H   2)      0.00  0.000000   -0.00     -0.00   
    27. D(C   9,C   8,C   7,C   0)      0.00  0.000000   -0.00     -0.00   
    28. D(H   3,C   8,C   7,C   0)    180.00  0.000000   -0.00    180.00   
    29. D(C   9,C   8,C   7,H   2)    180.00  0.000000   -0.00    180.00   
    30. D(H   6,C   9,C   8,C   7)      0.00 -0.000000    0.00      0.00   
    31. D(H   6,C   9,C   8,H   3)    180.00 -0.000000    0.00    180.00   
    32. D(H   5,C   9,C   8,C   7)    180.00  0.000000   -0.00    180.00   
    33. D(H   5,C   9,C   8,H   3)      0.00  0.000000   -0.00     -0.00   
    ----------------------------------------------------------------------------

         *************************************************************
         *                GEOMETRY OPTIMIZATION CYCLE   2            *
         *************************************************************
---------------------------------
CARTESIAN COORDINATES (ANGSTROEM)
---------------------------------
  C     -0.368589    0.000000   -0.391649
  H     -0.377179    0.000000   -1.506692
  H     -2.384567   -0.000000    0.316472
  H     -2.383421    0.000000    2.422327
  H      0.702729    0.000000   -0.286650
  H     -0.351233    0.000000    4.131167
  H      0.836735   -0.000000    3.080549
  C     -1.386075   -0.000000    0.586719
  C     -1.376559   -0.000000    2.033541
  C     -0.258686   -0.000000    3.065092

----------------------------
CARTESIAN COORDINATES (A.U.)
----------------------------
  NO LB      ZA    FRAG     MASS         X           Y           Z
   0 C     6.0000    0    12.011   -0.696532    0.000000   -0.740110
   1 H     1.0000    0     1.008   -0.712765    0.000000   -2.847235
   2 H     1.0000    0     1.008   -4.506178   -0.000000    0.598045
   3 H     1.0000    0     1.008   -4.504013    0.000000    4.577535
   4 H     1.0000    0     1.008    1.327965    0.000000   -0.541691
   5 H     1.0000    0     1.008   -0.663734    0.000000    7.806775
   6 H     1.0000    0     1.008    1.581200   -0.000000    5.821395
   7 C     6.0000    0    12.011   -2.619302   -0.000000    1.108739
   8 C     6.0000    0    12.011   -2.601320   -0.000000    3.842836
   9 C     6.0000    0    12.011   -0.488847   -0.000000    5.792185

--------------------------------
INTERNAL COORDINATES (ANGSTROEM)
--------------------------------
 C      0   0   0     0.000000000000     0.00000000     0.00000000
 H      1   0   0     1.115075635354     0.00000000     0.00000000
 H      1   2   0     2.136727064011   108.91263251     0.00000000
 H      3   1   2     2.105856053178   109.32286441   180.00000000
 H      1   2   3     1.076450781928    96.03903927   180.00000000
 H      4   3   1     2.655169151180   130.09121125     0.00000000
 H      6   4   3     1.585895743775    98.45097605     0.00000000
 C      3   1   2     1.034417513436    34.49864927   180.00000000
 C      4   3   1     1.079316962003    68.91778292     0.00000000
 C      6   4   3     1.070084599936    54.90139153     0.00000000

---------------------------
INTERNAL COORDINATES (A.U.)
---------------------------
 C      0   0   0     0.000000000000     0.00000000     0.00000000
 H      1   0   0     2.107187569428     0.00000000     0.00000000
 H      1   2   0     4.037828973918   108.91263251     0.00000000
 H      3   1   2     3.979491217967   109.32286441   180.00000000
 H      1   2   3     2.034197174489    96.03903927   180.00000000
 H      4   3   1     5.017542534967   130.09121125     0.00000000
 H      6   4   3     2.996908632687    98.45097605     0.00000000
 C      3   1   2     1.954765808527    34.49864927   180.00000000
 C      4   3   1     2.039613469881    68.91778292     0.00000000
 C      6   4   3     2.022166834005    54.90139153     0.00000000

------------------------------------------------------------------------------
                   ___                                                        
                  /   \      - P O W E R E D   B Y -                         
                 /     \                                                     
                 |  |  |   _    _      __       _____    __    __             
                 |  |  |  | |  | |    /  \     |  _  \  |  |  /  |          
                  \  \/   | |  | |   /    \    | | | |  |  | /  /          
                 / \  \   | |__| |  /  /\  \   | |_| |  |  |/  /          
                |  |  |   |  __  | /  /__\  \  |    /   |      \           
                |  |  |   | |  | | |   __   |  |    \   |  |\   \          
                \     /   | |  | | |  |  |  |  | |\  \  |  | \   \       
                 \___/    |_|  |_| |__|  |__|  |_| \__\ |__|  \__/        
                                                                              
                      - O R C A' S   B I G   F R I E N D -                    
                                      &                                       
                       - I N T E G R A L  F E E D E R -                       
                                                                              
 v1 FN, 2020, v2 2021                                                         
------------------------------------------------------------------------------


Reading SHARK input file run.SHARKINP.tmp ... ok
----------------------
SHARK INTEGRAL PACKAGE
----------------------

Number of atoms                             ...     10
Number of basis functions                   ...     86
Number of shells                            ...     42
Maximum angular momentum                    ...      2
Integral batch strategy                     ... SHARK/LIBINT Hybrid
RI-J (if used) integral strategy            ... SPLIT-RIJ (Revised 2003 algorithm where possible)
Printlevel                                  ...      1
Contraction scheme used                     ... SEGMENTED contraction
Coulomb Range Separation                    ... NOT USED
Exchange Range Separation                   ... NOT USED
Finite Nucleus Model                        ... NOT USED
Auxiliary Coulomb fitting basis             ... AVAILABLE
   # of basis functions in Aux-J            ...    262
   # of shells in Aux-J                     ...     90
   Maximum angular momentum in Aux-J        ...      4
Auxiliary J/K fitting basis                 ... NOT available
Auxiliary Correlation fitting basis         ... NOT available
Auxiliary 'external' fitting basis          ... NOT available
Integral threshold                          ...     2.500000e-11
Primitive cut-off                           ...     2.500000e-12
Primitive pair pre-selection threshold      ...     2.500000e-12

Calculating pre-screening integrals         ... done (  0.0 sec) Dimension = 42
Organizing shell pair data                  ... done (  0.0 sec)
Shell pair information
Total number of shell pairs                 ...       903
Shell pairs after pre-screening             ...       886
Total number of primitive shell pairs       ...      3151
Primitive shell pairs kept                  ...      2489
          la=0 lb=0:    295 shell pairs
          la=1 lb=0:    326 shell pairs
          la=1 lb=1:    103 shell pairs
          la=2 lb=0:     96 shell pairs
          la=2 lb=1:     56 shell pairs
          la=2 lb=2:     10 shell pairs

Calculating one electron integrals          ... done (  0.0 sec)
Calculating RI/J V-Matrix + Cholesky decomp.... done (  0.0 sec)
Calculating Nuclear repulsion               ... done (  0.0 sec) ENN=     99.377738003425 Eh

SHARK setup successfully completed in   0.1 seconds

Maximum memory used throughout the entire GTOINT-calculation: 9.6 MB

Diagonalization of the overlap matrix:
Smallest eigenvalue                        ... 2.518e-03
Time for diagonalization                   ...    0.001 sec
Threshold for overlap eigenvalues          ... 1.000e-08
Number of eigenvalues below threshold      ... 0
Time for construction of square roots      ...    0.000 sec
Total time needed                          ...    0.001 sec

-------------------
DFT GRID GENERATION
-------------------

General Integration Accuracy     IntAcc      ... 4.388
Radial Grid Type                 RadialGrid  ... OptM3 with GC (2021)
Angular Grid (max. ang.)         AngularGrid ... 4 (Lebedev-302)
Angular grid pruning method      GridPruning ... 4 (adaptive)
Weight generation scheme         WeightScheme... Becke
Basis function cutoff            BFCut       ... 1.0000e-11
Integration weight cutoff        WCut        ... 1.0000e-14
Angular grids for H and He will be reduced by one unit
Partially contracted basis set               ... off
Rotationally invariant grid construction     ... off

Total number of grid points                  ...    43828
Total number of batches                      ...      692
Average number of points per batch           ...       63
Average number of grid points per atom       ...     4383
Time for grid setup =    0.214 sec

--------------------
COSX GRID GENERATION
--------------------

GRIDX 1
-------
General Integration Accuracy     IntAcc      ... 3.816
Radial Grid Type                 RadialGrid  ... OptM3 with GC (2021)
Angular Grid (max. ang.)         AngularGrid ... 1 (Lebedev-50)
Angular grid pruning method      GridPruning ... 4 (adaptive)
Weight generation scheme         WeightScheme... Becke
Basis function cutoff            BFCut       ... 1.0000e-11
Integration weight cutoff        WCut        ... 1.0000e-14
Angular grids for H and He will be reduced by one unit
Partially contracted basis set               ... on
Rotationally invariant grid construction     ... off

Total number of grid points                  ...     5620
Total number of batches                      ...       93
Average number of points per batch           ...       60
Average number of grid points per atom       ...      562
UseSFitting                                  ... on

GRIDX 2
-------
General Integration Accuracy     IntAcc      ... 4.020
Radial Grid Type                 RadialGrid  ... OptM3 with GC (2021)
Angular Grid (max. ang.)         AngularGrid ... 2 (Lebedev-110)
Angular grid pruning method      GridPruning ... 4 (adaptive)
Weight generation scheme         WeightScheme... Becke
Basis function cutoff            BFCut       ... 1.0000e-11
Integration weight cutoff        WCut        ... 1.0000e-14
Angular grids for H and He will be reduced by one unit
Partially contracted basis set               ... on
Rotationally invariant grid construction     ... off

Total number of grid points                  ...    12059
Total number of batches                      ...      192
Average number of points per batch           ...       62
Average number of grid points per atom       ...     1206
UseSFitting                                  ... on

GRIDX 3
-------
General Integration Accuracy     IntAcc      ... 4.338
Radial Grid Type                 RadialGrid  ... OptM3 with GC (2021)
Angular Grid (max. ang.)         AngularGrid ... 3 (Lebedev-194)
Angular grid pruning method      GridPruning ... 4 (adaptive)
Weight generation scheme         WeightScheme... Becke
Basis function cutoff            BFCut       ... 1.0000e-11
Integration weight cutoff        WCut        ... 1.0000e-14
Angular grids for H and He will be reduced by one unit
Partially contracted basis set               ... on
Rotationally invariant grid construction     ... off

Total number of grid points                  ...    26533
Total number of batches                      ...      419
Average number of points per batch           ...       63
Average number of grid points per atom       ...     2653
UseSFitting                                  ... on

Time for X-Grid setup             =    0.199 sec

--------------
SCF ITERATIONS
--------------
ITER       Energy         Delta-E        Max-DP      RMS-DP      [F,P]     Damp
               ***  Starting incremental Fock matrix formation  ***
  0   -155.6952004797   0.000000000000 0.00793232  0.00049116  0.0198746 0.7000
                      *** Initiating the SOSCF procedure ***
                      *** Re-Reading the Fockian *** 
                      *** Removing any level shift *** 
ITER      Energy       Delta-E        Grad      Rot      Max-DP    RMS-DP
  1   -155.69645722  -0.0012567422  0.002766  0.002766  0.023664  0.001415
               *** Restarting incremental Fock matrix formation ***
  2   -155.69931583  -0.0028586094  0.002185  0.005894  0.008633  0.000448
  3   -155.69938401  -0.0000681809  0.002820  0.003424  0.004683  0.000211
  4   -155.69950674  -0.0001227229  0.000612  0.002195  0.002800  0.000104
  5   -155.69949656   0.0000101778  0.000967  0.001622  0.001750  0.000070
  6   -155.69951200  -0.0000154458  0.000087  0.000484  0.000368  0.000017
  7   -155.69951182   0.0000001845  0.000160  0.000377  0.000315  0.000011
  8   -155.69951214  -0.0000003254  0.000043  0.000130  0.000230  0.000008
  9   -155.69951209   0.0000000513  0.000078  0.000087  0.000136  0.000005
                  ***Gradient check signals convergence***
              ***Rediagonalizing the Fockian in SOSCF/NRSCF***

               *****************************************************
               *                     SUCCESS                       *
               *           SCF CONVERGED AFTER  10 CYCLES          *
               *****************************************************

Old exchange energy                            =     -4.521904892 Eh
New exchange energy                            =     -4.521878884 Eh
Exchange energy change after final integration =      0.000026007 Eh
Total energy after final integration           =   -155.699486169 Eh
Final COS-X integration done in                =     1.337 sec
Total Energy       :         -155.69948617 Eh           -4236.79841 eV
  Last Energy change         ...   -8.3995e-08  Tolerance :   1.0000e-08
  Last MAX-Density change    ...    2.2204e-15  Tolerance :   1.0000e-07
             **** THE GBW FILE WAS UPDATED (run.gbw) ****
             **** DENSITY run.scfp WAS UPDATED ****
             **** ENERGY FILE WAS UPDATED (run.en.tmp) ****
             **** THE GBW FILE WAS UPDATED (run.gbw) ****
             **** DENSITY run.scfp WAS UPDATED ****
Total SCF time: 0 days 0 hours 0 min 10 sec 

Maximum memory used throughout the entire SCF-calculation: 51.3 MB

-------------------------   --------------------
FINAL SINGLE POINT ENERGY      -155.699486169355
-------------------------   --------------------

------------------------------------------------------------------------------
                         ORCA SCF GRADIENT CALCULATION
------------------------------------------------------------------------------

 ... reading COSX grid (gridx3)
Gradient of the Kohn-Sham DFT energy:
Kohn-Sham wavefunction type      ... RKS
Hartree-Fock exchange scaling    ...    0.200
Number of operators              ...    1
Number of atoms                  ...   10
Basis set dimensions             ...   86
Integral neglect threshold       ... 2.5e-11
Integral primitive cutoff        ... 2.5e-12
SHARK Integral package           ... ON

Nuc. rep. gradient       (SHARK) ... done (  0.0 sec)
HCore & Overlap gradient (SHARK) ... done (  0.0 sec)
RI-J gradient            (SHARK) ... done (  0.2 sec)
COSX-gradient                    ... done (  1.5 sec)
Exchange-correlation gradient    ... done

------------------
CARTESIAN GRADIENT
------------------

   1   C   :    0.027709653    0.000000041   -0.013980025
   2   H   :    0.032837177   -0.000000004   -0.009534567
   3   H   :    0.043448646   -0.000000001    0.029371096
   4   H   :    0.006271710    0.000000001   -0.012647789
   5   H   :   -0.014512558   -0.000000000   -0.031582338
   6   H   :    0.036190731    0.000000001   -0.019938263
   7   H   :   -0.004852563   -0.000000003    0.038488676
   8   C   :   -0.084312218    0.000000001    0.029030769
   9   C   :   -0.107186238   -0.000000013   -0.079965157
  10   C   :    0.064483291    0.000000003    0.070726537

Difference to translation invariance:
           :    0.0000776304    0.0000000263   -0.0000310619

Difference to rotation invariance:
           :    0.0000000493    0.0002553723   -0.0000000011

Norm of the cartesian gradient     ...    0.2109442533
RMS gradient                       ...    0.0385129753
MAX gradient                       ...    0.1071862385

-------
TIMINGS
-------

Total SCF gradient time            ...        2.867 sec

One electron gradient       ....       0.029 sec  (  1.0%)
RI-J Coulomb gradient       ....       0.169 sec  (  5.9%)
COSX gradient               ....       1.542 sec  ( 53.8%)
XC gradient                 ....       0.996 sec  ( 34.7%)

Maximum memory used throughout the entire SCFGRAD-calculation: 40.1 MB
------------------------------------------------------------------------------
                         ORCA GEOMETRY RELAXATION STEP
------------------------------------------------------------------------------

Reading the OPT-File                    .... done
Getting information on internals        .... done
Copying old internal coords+grads       .... done
Making the new internal coordinates     .... (new redundants).... done
Validating the new internal coordinates .... (new redundants).... done
Calculating the B-matrix                .... done
Calculating the G,G- and P matrices     .... done
Transforming gradient to internals      .... done
Projecting the internal gradient        .... done
Number of atoms                         ....  10
Number of internal coordinates          ....  33
Current Energy                          ....  -155.699486169 Eh
Current gradient norm                   ....     0.210944253 Eh/bohr
Maximum allowed component of the step   ....  0.300
Current trust radius                    ....  0.300
Updating the Hessian (BFGS)             .... done
Forming the augmented Hessian           .... done
Diagonalizing the augmented Hessian     .... done
Last element of RFO vector              ....  0.845941339
Lowest eigenvalues of augmented Hessian:
 -0.114079737  0.005190598  0.005190598  0.010747587  0.014736171
Length of the computed step             ....  0.630393546
Warning: the length of the step is outside the trust region - taking restricted step instead
The input lambda is                     ....    -0.114080
   iter:   1  x=   -0.223189  g=    2.817313 f(x)=     0.307396
   iter:   2  x=   -0.334538  g=    1.051803 f(x)=     0.117116
   iter:   3  x=   -0.407135  g=    0.496484 f(x)=     0.036043
   iter:   4  x=   -0.426781  g=    0.331727 f(x)=     0.006517
   iter:   5  x=   -0.427840  g=    0.300079 f(x)=     0.000318
   iter:   6  x=   -0.427843  g=    0.298489 f(x)=     0.000001
   iter:   7  x=   -0.427843  g=    0.298485 f(x)=     0.000000
   iter:   8  x=   -0.427843  g=    0.298485 f(x)=     0.000000
The output lambda is                    ....    -0.427843 (8 iterations)
The final length of the internal step   ....  0.300000000
Converting the step to cartesian space:
 Initial RMS(Int)=    0.0522232968
Transforming coordinates:
 Iter   0:  RMS(Cart)=    0.1046126579 RMS(Int)=    1.8951665782
 Iter   1:  RMS(Cart)=    0.0024965782 RMS(Int)=    0.0017714607
 Iter   2:  RMS(Cart)=    0.0001192968 RMS(Int)=    0.0001168771
 Iter   3:  RMS(Cart)=    0.0000086758 RMS(Int)=    0.0000088980
 Iter   4:  RMS(Cart)=    0.0000008054 RMS(Int)=    0.0000004865
 Iter   5:  RMS(Cart)=    0.0000000535 RMS(Int)=    0.0000000480
done
Storing new coordinates                 .... done

                                .--------------------.
          ----------------------|Geometry convergence|-------------------------
          Item                value                   Tolerance       Converged
          ---------------------------------------------------------------------
          Energy change      -0.0660088335            0.0000050000      NO
          RMS gradient        0.0321105920            0.0001000000      NO
          MAX gradient        0.1309500994            0.0003000000      NO
          RMS step            0.0522232968            0.0020000000      NO
          MAX step            0.2294260363            0.0040000000      NO
          ........................................................
          Max(Bonds)      0.1214      Max(Angles)    4.77
          Max(Dihed)        0.00      Max(Improp)    0.00
          ---------------------------------------------------------------------

The optimization has not yet converged - more geometry cycles are needed


    ---------------------------------------------------------------------------
                         Redundant Internal Coordinates
                            (Angstroem and degrees)

        Definition                    Value    dE/dq     Step     New-Value
    ----------------------------------------------------------------------------
     1. B(H   1,C   0)                1.1151  0.009278 -0.0079    1.1072   
     2. B(H   4,C   0)                1.0765 -0.017529  0.0115    1.0879   
     3. B(C   7,H   2)                1.0344 -0.049607  0.0282    1.0626   
     4. B(C   7,C   0)                1.4116  0.071352 -0.0525    1.3590   
     5. B(C   8,C   7)                1.4469 -0.003354  0.0052    1.4521   
     6. B(C   8,H   3)                1.0793 -0.010398  0.0074    1.0867   
     7. B(C   9,H   5)                1.0701 -0.022989  0.0142    1.0842   
     8. B(C   9,C   8)                1.5211  0.130950 -0.1214    1.3997   
     9. B(C   9,H   6)                1.0955 -0.004319  0.0019    1.0975   
    10. A(H   4,C   0,C   7)          130.53  0.017586   -1.69    128.83   
    11. A(H   1,C   0,H   4)           96.04 -0.043462    4.20    100.24   
    12. A(H   1,C   0,C   7)          133.44  0.025876   -2.51    130.93   
    13. A(H   2,C   7,C   8)          105.52 -0.026338    2.43    107.95   
    14. A(C   0,C   7,H   2)          120.98  0.006898   -0.65    120.33   
    15. A(C   0,C   7,C   8)          133.50  0.019441   -1.78    131.72   
    16. A(H   3,C   8,C   7)          110.74 -0.017081    1.52    112.26   
    17. A(C   7,C   8,C   9)          133.08  0.014699   -1.39    131.69   
    18. A(H   3,C   8,C   9)          116.19  0.002381   -0.14    116.05   
    19. A(H   6,C   9,C   8)          138.11  0.030084   -2.95    135.16   
    20. A(H   5,C   9,C   8)          127.74  0.019658   -1.82    125.92   
    21. A(H   5,C   9,H   6)           94.15 -0.049742    4.77     98.93   
    22. D(H   2,C   7,C   0,H   4)    180.00  0.000000   -0.00    180.00   
[...]
Angular Grid (max. ang.)         AngularGrid ... 2 (Lebedev-110)
Angular grid pruning method      GridPruning ... 4 (adaptive)
Weight generation scheme         WeightScheme... Becke
Basis function cutoff            BFCut       ... 1.0000e-11
Integration weight cutoff        WCut        ... 1.0000e-14
Angular grids for H and He will be reduced by one unit
Partially contracted basis set               ... on
Rotationally invariant grid construction     ... off

Total number of grid points                  ...    12023
Total number of batches                      ...      190
Average number of points per batch           ...       63
Average number of grid points per atom       ...     1202
UseSFitting                                  ... on

GRIDX 3
-------
General Integration Accuracy     IntAcc      ... 4.338
Radial Grid Type                 RadialGrid  ... OptM3 with GC (2021)
Angular Grid (max. ang.)         AngularGrid ... 3 (Lebedev-194)
Angular grid pruning method      GridPruning ... 4 (adaptive)
Weight generation scheme         WeightScheme... Becke
Basis function cutoff            BFCut       ... 1.0000e-11
Integration weight cutoff        WCut        ... 1.0000e-14
Angular grids for H and He will be reduced by one unit
Partially contracted basis set               ... on
Rotationally invariant grid construction     ... off

Total number of grid points                  ...    26413
Total number of batches                      ...      420
Average number of points per batch           ...       62
Average number of grid points per atom       ...     2641
UseSFitting                                  ... on

Time for X-Grid setup             =    0.224 sec

--------------
SCF ITERATIONS
--------------
ITER       Energy         Delta-E        Max-DP      RMS-DP      [F,P]     Damp
               ***  Starting incremental Fock matrix formation  ***
                      *** Initiating the SOSCF procedure ***
                      *** Re-Reading the Fockian *** 
                      *** Removing any level shift *** 
ITER      Energy       Delta-E        Grad      Rot      Max-DP    RMS-DP
  0   -155.76610414 -155.7661041397  0.000107  0.000107  0.000253  0.000015
               *** Restarting incremental Fock matrix formation ***
  1   -155.76610463  -0.0000004874  0.000024  0.000045  0.000091  0.000006
  2   -155.76610467  -0.0000000401  0.000008  0.000019  0.000035  0.000002
  3   -155.76610467   0.0000000004  0.000011  0.000016  0.000023  0.000001
  4   -155.76610467  -0.0000000025  0.000003  0.000007  0.000013  0.000000
  5   -155.76610467  -0.0000000005  0.000004  0.000004  0.000008  0.000000
                 **** Energy Check signals convergence ****
              ***Rediagonalizing the Fockian in SOSCF/NRSCF***

               *****************************************************
               *                     SUCCESS                       *
               *           SCF CONVERGED AFTER   6 CYCLES          *
               *****************************************************

Old exchange energy                            =     -4.547382523 Eh
New exchange energy                            =     -4.547351874 Eh
Exchange energy change after final integration =      0.000030649 Eh
Total energy after final integration           =   -155.766074020 Eh
Final COS-X integration done in                =     1.335 sec

----------------
TOTAL SCF ENERGY
----------------

Total Energy       :         -155.76607402 Eh           -4238.61036 eV

Components:
Nuclear Repulsion  :          104.13404506 Eh            2833.63143 eV
Electronic Energy  :         -259.90011908 Eh           -7072.24179 eV
One Electron Energy:         -414.03386997 Eh          -11266.43438 eV
Two Electron Energy:          154.13375089 Eh            4194.19259 eV
Max COSX asymmetry :            0.00000232 Eh               0.00006 eV

Virial components:
Potential Energy   :         -309.66311964 Eh           -8426.36187 eV
Kinetic Energy     :          153.89704562 Eh            4187.75151 eV
Virial Ratio       :            2.01214467


DFT components:
N(Alpha)           :       14.999988641998 electrons
N(Beta)            :       14.999988641998 electrons
N(Total)           :       29.999977283996 electrons
E(X)               :      -18.036699091505 Eh       
E(C)               :       -1.134809787008 Eh       
E(XC)              :      -19.171508878513 Eh       
DFET-embed. en.    :        0.000000000000 Eh       

---------------
SCF CONVERGENCE
---------------

  Last Energy change         ...    4.7680e-10  Tolerance :   1.0000e-08
  Last MAX-Density change    ...    2.6645e-15  Tolerance :   1.0000e-07
  Last RMS-Density change    ...    5.9774e-17  Tolerance :   5.0000e-09
  Last Orbital Gradient      ...    8.9253e-08  Tolerance :   1.0000e-05
  Last Orbital Rotation      ...    4.4530e-07  Tolerance :   1.0000e-05

             **** THE GBW FILE WAS UPDATED (run.gbw) ****
             **** DENSITY run.scfp WAS UPDATED ****
             **** ENERGY FILE WAS UPDATED (run.en.tmp) ****
             **** THE GBW FILE WAS UPDATED (run.gbw) ****
             **** DENSITY run.scfp WAS UPDATED ****
----------------
ORBITAL ENERGIES
----------------

  NO   OCC          E(Eh)            E(eV) 
   0   2.0000     -10.191964      -277.3375 
   1   2.0000     -10.191901      -277.3357 
   2   2.0000     -10.185641      -277.1654 
   3   2.0000     -10.185579      -277.1637 
   4   2.0000      -0.791761       -21.5449 
   5   2.0000      -0.717818       -19.5328 
   6   2.0000      -0.611640       -16.6436 
   7   2.0000      -0.519923       -14.1478 
   8   2.0000      -0.486896       -13.2491 
   9   2.0000      -0.438905       -11.9432 
  10   2.0000      -0.415928       -11.3180 
  11   2.0000      -0.359048        -9.7702 
  12   2.0000      -0.348516        -9.4836 
  13   2.0000      -0.322524        -8.7763 
  14   2.0000      -0.233240        -6.3468 
  15   0.0000      -0.039059        -1.0629 
  16   0.0000       0.070017         1.9053 
  17   0.0000       0.082640         2.2488 
  18   0.0000       0.085141         2.3168 
  19   0.0000       0.109543         2.9808 
  20   0.0000       0.151736         4.1289 
  21   0.0000       0.157073         4.2742 
  22   0.0000       0.176772         4.8102 
  23   0.0000       0.296128         8.0581 
  24   0.0000       0.299742         8.1564 
  25   0.0000       0.369503        10.0547 
  26   0.0000       0.398010        10.8304 
  27   0.0000       0.425984        11.5916 
  28   0.0000       0.435376        11.8472 
  29   0.0000       0.457907        12.4603 
  30   0.0000       0.471595        12.8328 
  31   0.0000       0.525721        14.3056 
  32   0.0000       0.532589        14.4925 
  33   0.0000       0.537116        14.6157 
  34   0.0000       0.580682        15.8012 
  35   0.0000       0.628146        17.0927 
  36   0.0000       0.650967        17.7137 
  37   0.0000       0.651438        17.7265 
  38   0.0000       0.666425        18.1343 
  39   0.0000       0.678905        18.4739 
  40   0.0000       0.695460        18.9244 
  41   0.0000       0.707423        19.2500 
  42   0.0000       0.761763        20.7286 
  43   0.0000       0.808419        21.9982 
  44   0.0000       0.851608        23.1734 
  45   0.0000       0.951530        25.8924 
  46   0.0000       1.084318        29.5058 
  47   0.0000       1.178678        32.0735 
  48   0.0000       1.209434        32.9104 
  49   0.0000       1.241427        33.7810 
  50   0.0000       1.280898        34.8550 
  51   0.0000       1.284287        34.9472 
  52   0.0000       1.286415        35.0051 
  53   0.0000       1.587441        43.1965 
  54   0.0000       1.607006        43.7289 
  55   0.0000       1.635195        44.4959 
  56   0.0000       1.662713        45.2447 
  57   0.0000       1.683871        45.8205 
  58   0.0000       1.695302        46.1315 
  59   0.0000       1.748404        47.5765 
  60   0.0000       1.756427        47.7948 
  61   0.0000       1.793850        48.8131 
  62   0.0000       1.828347        49.7518 
  63   0.0000       1.891794        51.4783 
  64   0.0000       1.911514        52.0149 
  65   0.0000       1.963915        53.4408 
  66   0.0000       1.967118        53.5280 
  67   0.0000       2.021840        55.0171 
  68   0.0000       2.090191        56.8770 
  69   0.0000       2.139232        58.2115 
  70   0.0000       2.227566        60.6151 
  71   0.0000       2.259155        61.4747 
  72   0.0000       2.297260        62.5116 
  73   0.0000       2.361210        64.2518 
  74   0.0000       2.419031        65.8252 
  75   0.0000       2.442369        66.4602 
  76   0.0000       2.587862        70.4193 
  77   0.0000       2.589059        70.4519 
  78   0.0000       2.683815        73.0303 
  79   0.0000       2.729877        74.2837 
  80   0.0000       2.781414        75.6861 
  81   0.0000       2.892011        78.6956 
  82   0.0000       2.904840        79.0447 
  83   0.0000       3.104878        84.4880 
  84   0.0000       3.147282        85.6419 
  85   0.0000       3.444944        93.7417 

                    ********************************
                    * MULLIKEN POPULATION ANALYSIS *
                    ********************************

-----------------------
MULLIKEN ATOMIC CHARGES
-----------------------
   0 C :   -0.021340
   1 H :    0.024371
   2 H :   -0.006215
   3 H :   -0.006111
   4 H :    0.015947
   5 H :    0.024358
   6 H :    0.015933
   7 C :   -0.012657
   8 C :   -0.012789
   9 C :   -0.021496
Sum of atomic charges:   -0.0000000

--------------------------------
MULLIKEN REDUCED ORBITAL CHARGES
--------------------------------
  0 C s       :     3.107816  s :     3.107816
      pz      :     0.940820  p :     2.887248
      px      :     0.955371
      py      :     0.991057
      dz2     :     0.008710  d :     0.026276
      dxz     :     0.007835
      dyz     :     0.001958
      dx2y2   :     0.004561
      dxy     :     0.003211
  1 H s       :     0.952076  s :     0.952076
      pz      :     0.014452  p :     0.023553
      px      :     0.004171
      py      :     0.004931
  2 H s       :     0.983593  s :     0.983593
      pz      :     0.005385  p :     0.022622
      px      :     0.012707
      py      :     0.004530
  3 H s       :     0.983498  s :     0.983498
      pz      :     0.005533  p :     0.022613
      px      :     0.012552
      py      :     0.004528
  4 H s       :     0.960730  s :     0.960730
      pz      :     0.005350  p :     0.023323
      px      :     0.013361
      py      :     0.004612
  5 H s       :     0.952089  s :     0.952089
      pz      :     0.014493  p :     0.023553
      px      :     0.004130
      py      :     0.004931
  6 H s       :     0.960741  s :     0.960741
      pz      :     0.005464  p :     0.023326
      px      :     0.013250
      py      :     0.004612
  7 C s       :     3.128778  s :     3.128778
      pz      :     0.941818  p :     2.848849
      px      :     0.926011
      py      :     0.981020
      dz2     :     0.010638  d :     0.035030
      dxz     :     0.011287
      dyz     :     0.005515
      dx2y2   :     0.004446
      dxy     :     0.003145
  8 C s       :     3.128740  s :     3.128740
      pz      :     0.941410  p :     2.849017
      px      :     0.926590
      py      :     0.981017
      dz2     :     0.010481  d :     0.035032
      dxz     :     0.011456
      dyz     :     0.005429
      dx2y2   :     0.004433
      dxy     :     0.003233
  9 C s       :     3.107910  s :     3.107910
      pz      :     0.939773  p :     2.887308
      px      :     0.956433
      py      :     0.991101
      dz2     :     0.008631  d :     0.026279
      dxz     :     0.007906
      dyz     :     0.001873
      dx2y2   :     0.004571
      dxy     :     0.003297


                     *******************************
                     * LOEWDIN POPULATION ANALYSIS *
                     *******************************

----------------------
LOEWDIN ATOMIC CHARGES
----------------------
   0 C :   -0.038190
   1 H :    0.026208
   2 H :    0.027256
   3 H :    0.027300
   4 H :    0.021099
   5 H :    0.026221
   6 H :    0.021079
   7 C :   -0.036355
   8 C :   -0.036381
   9 C :   -0.038238

-------------------------------
LOEWDIN REDUCED ORBITAL CHARGES
-------------------------------
  0 C s       :     2.886762  s :     2.886762
      pz      :     1.049318  p :     3.083455
      px      :     1.063404
      py      :     0.970733
      dz2     :     0.023651  d :     0.067972
      dxz     :     0.022075
      dyz     :     0.003708
      dx2y2   :     0.012376
      dxy     :     0.006162
  1 H s       :     0.906171  s :     0.906171
      pz      :     0.041174  p :     0.067621
      px      :     0.011400
      py      :     0.015047
  2 H s       :     0.907561  s :     0.907561
      pz      :     0.016153  p :     0.065183
      px      :     0.035358
      py      :     0.013673
  3 H s       :     0.907556  s :     0.907556
      pz      :     0.016575  p :     0.065144
      px      :     0.034906
      py      :     0.013663
  4 H s       :     0.911473  s :     0.911473
      pz      :     0.015169  p :     0.067427
      px      :     0.037913
      py      :     0.014346
  5 H s       :     0.906166  s :     0.906166
      pz      :     0.041316  p :     0.067613
      px      :     0.011249
      py      :     0.015048
  6 H s       :     0.911482  s :     0.911482
      pz      :     0.015535  p :     0.067439
      px      :     0.037555
      py      :     0.014349
  7 C s       :     2.873403  s :     2.873403
      pz      :     1.045167  p :     3.072865
      px      :     1.069100
      py      :     0.958598
      dz2     :     0.029231  d :     0.090087
      dxz     :     0.031175
      dyz     :     0.011422
      dx2y2   :     0.011971
      dxy     :     0.006288
  8 C s       :     2.873445  s :     2.873445
      pz      :     1.044263  p :     3.072848
      px      :     1.069981
      py      :     0.958604
      dz2     :     0.028787  d :     0.090087
      dxz     :     0.031610
      dyz     :     0.011235
      dx2y2   :     0.011976
      dxy     :     0.006479
  9 C s       :     2.886751  s :     2.886751
      pz      :     1.048835  p :     3.083506
      px      :     1.063896
      py      :     0.970775
      dz2     :     0.023431  d :     0.067981
      dxz     :     0.022246
      dyz     :     0.003546
      dx2y2   :     0.012433
      dxy     :     0.006326


                      *****************************
                      * MAYER POPULATION ANALYSIS *
                      *****************************

  NA   - Mulliken gross atomic population
  ZA   - Total nuclear charge
  QA   - Mulliken gross atomic charge
  VA   - Mayer's total valence
  BVA  - Mayer's bonded valence
  FA   - Mayer's free valence

  ATOM       NA         ZA         QA         VA         BVA        FA
  0 C      6.0213     6.0000    -0.0213     3.9369     3.9369    -0.0000
  1 H      0.9756     1.0000     0.0244     0.9745     0.9745    -0.0000
  2 H      1.0062     1.0000    -0.0062     0.9751     0.9751     0.0000
  3 H      1.0061     1.0000    -0.0061     0.9751     0.9751    -0.0000
  4 H      0.9841     1.0000     0.0159     0.9823     0.9823    -0.0000
  5 H      0.9756     1.0000     0.0244     0.9745     0.9745     0.0000
  6 H      0.9841     1.0000     0.0159     0.9823     0.9823    -0.0000
  7 C      6.0127     6.0000    -0.0127     4.0477     4.0477    -0.0000
  8 C      6.0128     6.0000    -0.0128     4.0477     4.0477     0.0000
  9 C      6.0215     6.0000    -0.0215     3.9371     3.9371    -0.0000

  Mayer bond orders larger than 0.100000
B(  0-C ,  1-H ) :   0.9478 B(  0-C ,  4-H ) :   0.9489 B(  0-C ,  7-C ) :   1.9524 
B(  0-C ,  9-C ) :   0.1099 B(  2-H ,  7-C ) :   0.9588 B(  3-H ,  8-C ) :   0.9587 
B(  5-H ,  9-C ) :   0.9478 B(  6-H ,  9-C ) :   0.9490 B(  7-C ,  8-C ) :   1.1026 
B(  8-C ,  9-C ) :   1.9525 

-------
TIMINGS
-------

Total SCF time: 0 days 0 hours 0 min 7 sec 

Total time                  ....       7.173 sec
Sum of individual times     ....       7.099 sec  ( 99.0%)

Fock matrix formation       ....       6.650 sec  ( 92.7%)
  Split-RI-J                ....       0.373 sec  (  5.6% of F)
  Chain of spheres X        ....       5.144 sec  ( 77.3% of F)
  XC integration            ....       1.136 sec  ( 17.1% of F)
    Basis function eval.    ....       0.467 sec  ( 41.1% of XC)
    Density eval.           ....       0.271 sec  ( 23.8% of XC)
    XC-Functional eval.     ....       0.114 sec  ( 10.1% of XC)
    XC-Potential eval.      ....       0.214 sec  ( 18.8% of XC)
Diagonalization             ....       0.001 sec  (  0.0%)
Density matrix formation    ....       0.000 sec  (  0.0%)
Population analysis         ....       0.003 sec  (  0.0%)
Initial guess               ....       0.001 sec  (  0.0%)
Orbital Transformation      ....       0.000 sec  (  0.0%)
Orbital Orthonormalization  ....       0.001 sec  (  0.0%)
DIIS solution               ....       0.000 sec  (  0.0%)
SOSCF solution              ....       0.003 sec  (  0.0%)
Grid generation             ....       0.441 sec  (  6.1%)

Maximum memory used throughout the entire SCF-calculation: 51.5 MB

-------------------------   --------------------
FINAL SINGLE POINT ENERGY      -155.766074020392
-------------------------   --------------------

                                *** OPTIMIZATION RUN DONE ***

                            ***************************************
                            *     ORCA property calculations      *
                            ***************************************

                                    ---------------------
                                    Active property flags
                                    ---------------------
   (+) Dipole Moment


------------------------------------------------------------------------------
                       ORCA ELECTRIC PROPERTIES CALCULATION
------------------------------------------------------------------------------

Dipole Moment Calculation                       ... on
Quadrupole Moment Calculation                   ... off
Polarizability Calculation                      ... off
GBWName                                         ... run.gbw
Electron density                                ... run.scfp
The origin for moment calculation is the CENTER OF MASS  = (-1.524604, -0.000404  2.542822)

-------------
DIPOLE MOMENT
-------------
                                X             Y             Z
Electronic contribution:     -0.75880      -0.00151       0.00540
Nuclear contribution   :      0.73840       0.00219      -0.00528
                        -----------------------------------------
Total Dipole Moment    :     -0.02039       0.00068       0.00011
                        -----------------------------------------
Magnitude (a.u.)       :      0.02041
Magnitude (Debye)      :      0.05187



--------------------
Rotational spectrum 
--------------------
 
Rotational constants in cm-1:     0.714122     0.186101     0.147629 
Rotational constants in MHz : 21408.839114  5579.177629  4425.805853 

 Dipole components along the rotational axes: 
x,y,z [a.u.] :    -0.000064     0.020395    -0.000675 
x,y,z [Debye]:    -0.000162     0.051840    -0.001717 

 

Timings for individual modules:

Sum of individual times         ...      125.710 sec (=   2.095 min)
GTO integral calculation        ...        1.135 sec (=   0.019 min)   0.9 %
SCF iterations                  ...       96.865 sec (=   1.614 min)  77.1 %
SCF Gradient evaluation         ...       27.574 sec (=   0.460 min)  21.9 %
Geometry relaxation             ...        0.136 sec (=   0.002 min)   0.1 %
                             ****ORCA TERMINATED NORMALLY****
TOTAL RUN TIME: 0 days 0 hours 2 minutes 5 seconds 950 msec
