
                                 *****************
                                 * O   R   C   A *
                                 *****************

                                            #,                                       
                                            ###                                      
                                            ####                                     
                                            #####                                    
                                            ######                                   
                                           ########,                                 
                                     ,,################,,,,,                         
                               ,,#################################,,                 
                          ,,##########################################,,             
                       ,#########################################, ''#####,          
                    ,#############################################,,   '####,        
                  ,##################################################,,,,####,       
                ,###########''''           ''''###############################       
              ,#####''   ,,,,##########,,,,          '''####'''          '####       
            ,##' ,,,,###########################,,,                        '##       
           ' ,,###''''                  '''############,,,                           
         ,,##''                                '''############,,,,        ,,,,,,###''
      ,#''                                            '''#######################'''  
     '                                                          ''''####''''         
             ,#######,   #######,   ,#######,      ##                                
            ,#'     '#,  ##    ##  ,#'     '#,    #''#        ######   ,####,        
            ##       ##  ##   ,#'  ##            #'  '#       #        #'  '#        
            ##       ##  #######   ##           ,######,      #####,   #    #        
            '#,     ,#'  ##    ##  '#,     ,#' ,#      #,         ##   #,  ,#        
             '#######'   ##     ##  '#######'  #'      '#     #####' # '####'        



                  #######################################################
                  #                        -***-                        #
                  #          Department of theory and spectroscopy      #
                  #    Directorship and core code : Frank Neese         #
                  #        Max Planck Institute fuer Kohlenforschung    #
                  #                Kaiser Wilhelm Platz 1               #
                  #                 D-45470 Muelheim/Ruhr               #
                  #                      Germany                        #
                  #                                                     #
                  #                  All rights reserved                #
                  #                        -***-                        #
                  #######################################################


                         Program Version 5.0.4 -  RELEASE  -


 With contributions from (in alphabetic order):
   Daniel Aravena         : Magnetic Suceptibility
   Michael Atanasov       : Ab Initio Ligand Field Theory (pilot matlab implementation)
   Alexander A. Auer      : GIAO ZORA, VPT2 properties, NMR spectrum
   Ute Becker             : Parallelization
   Giovanni Bistoni       : ED, misc. LED, open-shell LED, HFLD
   Martin Brehm           : Molecular dynamics
   Dmytro Bykov           : SCF Hessian
   Vijay G. Chilkuri      : MRCI spin determinant printing, contributions to CSF-ICE
   Dipayan Datta          : RHF DLPNO-CCSD density
   Achintya Kumar Dutta   : EOM-CC, STEOM-CC
   Dmitry Ganyushin       : Spin-Orbit,Spin-Spin,Magnetic field MRCI
   Miquel Garcia          : C-PCM and meta-GGA Hessian, CC/C-PCM, Gaussian charge scheme
   Yang Guo               : DLPNO-NEVPT2, F12-NEVPT2, CIM, IAO-localization
   Andreas Hansen         : Spin unrestricted coupled pair/coupled cluster methods
   Benjamin Helmich-Paris : MC-RPA, TRAH-SCF, COSX integrals
   Lee Huntington         : MR-EOM, pCC
   Robert Izsak           : Overlap fitted RIJCOSX, COSX-SCS-MP3, EOM
   Marcus Kettner         : VPT2
   Christian Kollmar      : KDIIS, OOCD, Brueckner-CCSD(T), CCSD density, CASPT2, CASPT2-K
   Simone Kossmann        : Meta GGA functionals, TD-DFT gradient, OOMP2, MP2 Hessian
   Martin Krupicka        : Initial AUTO-CI
   Lucas Lang             : DCDCAS
   Marvin Lechner         : AUTO-CI (C++ implementation), FIC-MRCC
   Dagmar Lenk            : GEPOL surface, SMD
   Dimitrios Liakos       : Extrapolation schemes; Compound Job, initial MDCI parallelization
   Dimitrios Manganas     : Further ROCIS development; embedding schemes
   Dimitrios Pantazis     : SARC Basis sets
   Anastasios Papadopoulos: AUTO-CI, single reference methods and gradients
   Taras Petrenko         : DFT Hessian,TD-DFT gradient, ASA, ECA, R-Raman, ABS, FL, XAS/XES, NRVS
   Peter Pinski           : DLPNO-MP2, DLPNO-MP2 Gradient
   Christoph Reimann      : Effective Core Potentials
   Marius Retegan         : Local ZFS, SOC
   Christoph Riplinger    : Optimizer, TS searches, QM/MM, DLPNO-CCSD(T), (RO)-DLPNO pert. Triples
   Tobias Risthaus        : Range-separated hybrids, TD-DFT gradient, RPA, STAB
   Michael Roemelt        : Original ROCIS implementation
   Masaaki Saitow         : Open-shell DLPNO-CCSD energy and density
   Barbara Sandhoefer     : DKH picture change effects
   Avijit Sen             : IP-ROCIS
   Kantharuban Sivalingam : CASSCF convergence, NEVPT2, FIC-MRCI
   Bernardo de Souza      : ESD, SOC TD-DFT
   Georgi Stoychev        : AutoAux, RI-MP2 NMR, DLPNO-MP2 response
   Willem Van den Heuvel  : Paramagnetic NMR
   Boris Wezisla          : Elementary symmetry handling
   Frank Wennmohs         : Technical directorship


 We gratefully acknowledge several colleagues who have allowed us to
 interface, adapt or use parts of their codes:
   Stefan Grimme, W. Hujo, H. Kruse, P. Pracht,  : VdW corrections, initial TS optimization,
                  C. Bannwarth, S. Ehlert          DFT functionals, gCP, sTDA/sTD-DF
   Ed Valeev, F. Pavosevic, A. Kumar             : LibInt (2-el integral package), F12 methods
   Garnet Chan, S. Sharma, J. Yang, R. Olivares  : DMRG
   Ulf Ekstrom                                   : XCFun DFT Library
   Mihaly Kallay                                 : mrcc  (arbitrary order and MRCC methods)
   Jiri Pittner, Ondrej Demel                    : Mk-CCSD
   Frank Weinhold                                : gennbo (NPA and NBO analysis)
   Christopher J. Cramer and Donald G. Truhlar   : smd solvation model
   Lars Goerigk                                  : TD-DFT with DH, B97 family of functionals
   V. Asgeirsson, H. Jonsson                     : NEB implementation
   FAccTs GmbH                                   : IRC, NEB, NEB-TS, DLPNO-Multilevel, CI-OPT
                                                   MM, QMMM, 2- and 3-layer-ONIOM, Crystal-QMMM,
                                                   LR-CPCM, SF, NACMEs, symmetry and pop. for TD-DFT,
                                                   nearIR, NL-DFT gradient (VV10), updates on ESD,
                                                   ML-optimized integration grids
   S Lehtola, MJT Oliveira, MAL Marques          : LibXC Library
   Liviu Ungur et al                             : ANISO software


 Your calculation uses the libint2 library for the computation of 2-el integrals
 For citations please refer to: http://libint.valeyev.net

 Your ORCA version has been built with support for libXC version: 5.1.0
 For citations please refer to: https://tddft.org/programs/libxc/

 This ORCA versions uses:
   CBLAS   interface :  Fast vector & matrix operations
   LAPACKE interface :  Fast linear algebra routines
   SCALAPACK package :  Parallel linear algebra routines
   Shared memory     :  Shared parallel matrices
   BLAS/LAPACK       :  OpenBLAS 0.3.15  USE64BITINT DYNAMIC_ARCH NO_AFFINITY Haswell SINGLE_THREADED
        Core in use  :  Haswell
   Copyright (c) 2011-2014, The OpenBLAS Project


================================================================================

----- Orbital basis set information -----
Your calculation utilizes the basis: def2-SVP
   F. Weigend and R. Ahlrichs, Phys. Chem. Chem. Phys. 7, 3297 (2005).

----- AuxJ basis set information -----
Your calculation utilizes the auxiliary basis: def2/J
   F. Weigend, Phys. Chem. Chem. Phys. 8, 1057 (2006).

================================================================================
                                        WARNINGS
                       Please study these warnings very carefully!
================================================================================


WARNING: Geometry Optimization
  ===> : Switching off AutoStart
         For restart on a previous wavefunction, please use MOREAD

INFO   : the flag for use of the SHARK integral package has been found!

================================================================================
                                       INPUT FILE
================================================================================
NAME = C4H6_3d.inp
|  1> !B3LYP DEF2-SVP Opt
|  2> * xyz 0 1   
|  3> C       -0.923023801     -0.792202589     -1.709766075
|  4> C       -2.147795801     -0.263440400     -0.532545922
|  5> C        0.670070539     -0.423872967     -2.062566270
|  6> C       -1.375333363     -0.040285263      1.222966903
|  7> H        1.399704615     -0.560967156     -3.235441748
|  8> H        1.783470115      0.076253313     -1.506472480
|  9> H       -1.797317136     -1.375632603     -2.777138626
| 10> H       -3.139607639     -1.192075345     -0.846470026
| 11> H       -0.367497777      0.542406640      2.156214248
| 12> H       -1.984024722      0.260360156      2.817473833
| 13> **                         ****END OF INPUT****
================================================================================

                       *****************************
                       * Geometry Optimization Run *
                       *****************************

Geometry optimization settings:
Update method            Update   .... BFGS
Choice of coordinates    CoordSys .... Z-matrix Internals
Initial Hessian          InHess   .... Almoef's Model

Convergence Tolerances:
Energy Change            TolE     ....  5.0000e-06 Eh
Max. Gradient            TolMAXG  ....  3.0000e-04 Eh/bohr
RMS Gradient             TolRMSG  ....  1.0000e-04 Eh/bohr
Max. Displacement        TolMAXD  ....  4.0000e-03 bohr
RMS Displacement         TolRMSD  ....  2.0000e-03 bohr
Strict Convergence                ....  False
------------------------------------------------------------------------------
                        ORCA OPTIMIZATION COORDINATE SETUP
------------------------------------------------------------------------------

The optimization will be done in new redundant internal coordinates
Making redundant internal coordinates   ...  (new redundants) done
Evaluating the initial hessian          ...  (Almloef) done
Evaluating the coordinates              ...  done
Calculating the B-matrix                .... done
Calculating the G-matrix                .... done
Diagonalizing the G-matrix              .... done
Small eigenvalue found = 2.159e-02
The first mode is                       ....   14
The number of degrees of freedom        ....   24

    -----------------------------------------------------------------
                    Redundant Internal Coordinates


    -----------------------------------------------------------------
         Definition                    Initial Value    Approx d2E/dq
    -----------------------------------------------------------------
      1. B(C   1,C   0)                  1.7792         0.149561   
      2. B(C   2,C   0)                  1.6727         0.221122   
      3. B(C   3,C   1)                  1.9309         0.085662   
      4. B(H   4,C   2)                  1.3881         0.120458   
      5. B(H   5,C   2)                  1.3413         0.143063   
      6. B(H   6,C   0)                  1.4980         0.080437   
      7. B(H   7,C   1)                  1.3945         0.117660   
      8. B(H   8,C   3)                  1.4920         0.082220   
      9. B(H   9,H   8)                  1.7692         0.005687   
     10. B(H   9,C   3)                  1.7330         0.033926   
     11. A(C   1,C   0,C   2)          136.8630         0.287051   
     12. A(C   2,C   0,H   6)          119.4275         0.237857   
     13. A(C   1,C   0,H   6)          100.6862         0.225250   
     14. A(C   3,C   1,H   7)          124.4834         0.219900   
     15. A(C   0,C   1,C   3)          111.1321         0.248794   
     16. A(C   0,C   1,H   7)           98.2067         0.237498   
     17. A(C   0,C   2,H   4)          131.0769         0.252105   
     18. A(H   4,C   2,H   5)           87.1805         0.216828   
     19. A(C   0,C   2,H   5)          141.7426         0.258579   
     20. A(H   8,C   3,H   9)           66.0467         0.173650   
     21. A(C   1,C   3,H   9)          135.7291         0.187786   
     22. A(C   1,C   3,H   8)          152.1325         0.209701   
     23. A(C   3,H   8,H   9)           63.5341         0.134180   
     24. A(C   3,H   9,H   8)           50.4192         0.125977   
     25. D(C   3,C   1,C   0,H   6)    159.6653         0.002670   
     26. D(C   3,C   1,C   0,C   2)    -41.4837         0.002670   
     27. D(H   7,C   1,C   0,C   2)   -173.4744         0.002670   
     28. D(H   7,C   1,C   0,H   6)     27.6745         0.002670   
     29. D(H   4,C   2,C   0,H   6)      0.0000         0.004156   
     30. D(H   5,C   2,C   0,C   1)     24.0200         0.004156   
     31. D(H   4,C   2,C   0,C   1)   -155.9800         0.004156   
     32. D(H   5,C   2,C   0,H   6)    180.0000         0.004156   
     33. D(H   9,C   3,C   1,H   7)    -54.6924         0.001872   
     34. D(H   9,C   3,C   1,C   0)   -171.5090         0.001872   
     35. D(H   8,C   3,C   1,H   7)    171.2208         0.001872   
     36. D(H   8,C   3,C   1,C   0)     54.4042         0.001872   
     37. D(H   9,H   8,C   3,C   1)    146.7253         0.005033   
     38. D(H   8,H   9,C   3,C   1)   -158.4454         0.002030   
    -----------------------------------------------------------------

Number of atoms                         .... 10
Number of degrees of freedom            .... 38

         *************************************************************
         *                GEOMETRY OPTIMIZATION CYCLE   1            *
         *************************************************************
---------------------------------
CARTESIAN COORDINATES (ANGSTROEM)
---------------------------------
  C     -0.923024   -0.792203   -1.709766
  C     -2.147796   -0.263440   -0.532546
  C      0.670071   -0.423873   -2.062566
  C     -1.375333   -0.040285    1.222967
  H      1.399705   -0.560967   -3.235442
  H      1.783470    0.076253   -1.506472
  H     -1.797317   -1.375633   -2.777139
  H     -3.139608   -1.192075   -0.846470
  H     -0.367498    0.542407    2.156214
  H     -1.984025    0.260360    2.817474

----------------------------
CARTESIAN COORDINATES (A.U.)
----------------------------
  NO LB      ZA    FRAG     MASS         X           Y           Z
   0 C     6.0000    0    12.011   -1.744262   -1.497046   -3.230990
   1 C     6.0000    0    12.011   -4.058746   -0.497830   -1.006366
   2 C     6.0000    0    12.011    1.266250   -0.801004   -3.897685
   3 C     6.0000    0    12.011   -2.599003   -0.076128    2.311073
   4 H     1.0000    0     1.008    2.645058   -1.060074   -6.114099
   5 H     1.0000    0     1.008    3.370270    0.144098   -2.846820
   6 H     1.0000    0     1.008   -3.396437   -2.599569   -5.248031
   7 H     1.0000    0     1.008   -5.932999   -2.252696   -1.599597
   8 H     1.0000    0     1.008   -0.694470    1.025000    4.074654
   9 H     1.0000    0     1.008   -3.749263    0.492009    5.324254

--------------------------------
INTERNAL COORDINATES (ANGSTROEM)
--------------------------------
 C      0   0   0     0.000000000000     0.00000000     0.00000000
 C      1   0   0     1.779186104130     0.00000000     0.00000000
 C      1   2   0     1.672747519554   136.86295693     0.00000000
 C      2   1   3     1.930886250412   111.13210125   318.51630457
 H      3   1   2     1.388091347287   131.07688078   204.02002936
 H      3   1   2     1.341277456405   141.74258663    24.02002933
 H      1   2   3     1.498019886213   100.68619815   201.14897008
 H      2   1   3     1.394489844403    98.20672039   186.52556129
 H      4   2   1     1.492049941919   152.13246865    54.40417526
 H      4   2   1     1.733016211207   135.72905359   188.49101306

---------------------------
INTERNAL COORDINATES (A.U.)
---------------------------
 C      0   0   0     0.000000000000     0.00000000     0.00000000
 C      1   0   0     3.362174478084     0.00000000     0.00000000
 C      1   2   0     3.161034703154   136.86295693     0.00000000
 C      2   1   3     3.648846209033   111.13210125   318.51630457
 H      3   1   2     2.623112495237   131.07688078   204.02002936
 H      3   1   2     2.534647062208   141.74258663    24.02002933
 H      1   2   3     2.830847328111   100.68619815   201.14897008
 H      2   1   3     2.635203902457    98.20672039   186.52556129
 H      4   2   1     2.819565768359   152.13246865    54.40417526
 H      4   2   1     3.274926024826   135.72905359   188.49101306

---------------------
BASIS SET INFORMATION
---------------------
There are 2 groups of distinct atoms

 Group   1 Type C   : 7s4p1d contracted to 3s2p1d pattern {511/31/1}
 Group   2 Type H   : 4s1p contracted to 2s1p pattern {31/1}

Atom   0C    basis set group =>   1
Atom   1C    basis set group =>   1
Atom   2C    basis set group =>   1
Atom   3C    basis set group =>   1
Atom   4H    basis set group =>   2
Atom   5H    basis set group =>   2
Atom   6H    basis set group =>   2
Atom   7H    basis set group =>   2
Atom   8H    basis set group =>   2
Atom   9H    basis set group =>   2
---------------------------------
AUXILIARY/J BASIS SET INFORMATION
---------------------------------
There are 2 groups of distinct atoms

 Group   1 Type C   : 12s5p4d2f1g contracted to 6s4p3d1f1g pattern {711111/2111/211/2/1}
 Group   2 Type H   : 5s2p1d contracted to 3s1p1d pattern {311/2/1}

Atom   0C    basis set group =>   1
Atom   1C    basis set group =>   1
Atom   2C    basis set group =>   1
Atom   3C    basis set group =>   1
Atom   4H    basis set group =>   2
Atom   5H    basis set group =>   2
Atom   6H    basis set group =>   2
Atom   7H    basis set group =>   2
Atom   8H    basis set group =>   2
Atom   9H    basis set group =>   2
------------------------------------------------------------------------------
                           ORCA GTO INTEGRAL CALCULATION
                           -- RI-GTO INTEGRALS CHOSEN --
------------------------------------------------------------------------------
------------------------------------------------------------------------------
                   ___                                                        
                  /   \      - P O W E R E D   B Y -                         
                 /     \                                                     
                 |  |  |   _    _      __       _____    __    __             
                 |  |  |  | |  | |    /  \     |  _  \  |  |  /  |          
                  \  \/   | |  | |   /    \    | | | |  |  | /  /          
                 / \  \   | |__| |  /  /\  \   | |_| |  |  |/  /          
                |  |  |   |  __  | /  /__\  \  |    /   |      \           
                |  |  |   | |  | | |   __   |  |    \   |  |\   \          
                \     /   | |  | | |  |  |  |  | |\  \  |  | \   \       
                 \___/    |_|  |_| |__|  |__|  |_| \__\ |__|  \__/        
                                                                              
                      - O R C A' S   B I G   F R I E N D -                    
                                      &                                       
                       - I N T E G R A L  F E E D E R -                       
                                                                              
 v1 FN, 2020, v2 2021                                                         
------------------------------------------------------------------------------


Reading SHARK input file C4H6_3d.SHARKINP.tmp ... ok
----------------------
SHARK INTEGRAL PACKAGE
----------------------

Number of atoms                             ...     10
Number of basis functions                   ...     86
Number of shells                            ...     42
Maximum angular momentum                    ...      2
Integral batch strategy                     ... SHARK/LIBINT Hybrid
RI-J (if used) integral strategy            ... SPLIT-RIJ (Revised 2003 algorithm where possible)
Printlevel                                  ...      1
Contraction scheme used                     ... SEGMENTED contraction
Coulomb Range Separation                    ... NOT USED
Exchange Range Separation                   ... NOT USED
Finite Nucleus Model                        ... NOT USED
Auxiliary Coulomb fitting basis             ... AVAILABLE
   # of basis functions in Aux-J            ...    262
   # of shells in Aux-J                     ...     90
   Maximum angular momentum in Aux-J        ...      4
Auxiliary J/K fitting basis                 ... NOT available
Auxiliary Correlation fitting basis         ... NOT available
Auxiliary 'external' fitting basis          ... NOT available
Integral threshold                          ...     2.500000e-11
Primitive cut-off                           ...     2.500000e-12
Primitive pair pre-selection threshold      ...     2.500000e-12

Calculating pre-screening integrals         ... done (  0.0 sec) Dimension = 42
Organizing shell pair data                  ... done (  0.0 sec)
Shell pair information
Total number of shell pairs                 ...       903
Shell pairs after pre-screening             ...       855
Total number of primitive shell pairs       ...      3151
Primitive shell pairs kept                  ...      2286
          la=0 lb=0:    288 shell pairs
          la=1 lb=0:    315 shell pairs
          la=1 lb=1:     96 shell pairs
          la=2 lb=0:     93 shell pairs
          la=2 lb=1:     53 shell pairs
          la=2 lb=2:     10 shell pairs

Calculating one electron integrals          ... done (  0.0 sec)
Calculating RI/J V-Matrix + Cholesky decomp.... done (  0.0 sec)
Calculating Nuclear repulsion               ... done (  0.0 sec) ENN=     80.193603086325 Eh

SHARK setup successfully completed in   0.1 seconds

Maximum memory used throughout the entire GTOINT-calculation: 9.6 MB
-------------------------------------------------------------------------------
                                 ORCA SCF
-------------------------------------------------------------------------------

------------
SCF SETTINGS
------------
Hamiltonian:
 Density Functional     Method          .... DFT(GTOs)
 Exchange Functional    Exchange        .... B88
   X-Alpha parameter    XAlpha          ....  0.666667
   Becke's b parameter  XBeta           ....  0.004200
 Correlation Functional Correlation     .... LYP
 LDA part of GGA corr.  LDAOpt          .... VWN-5
 Gradients option       PostSCFGGA      .... off
 Hybrid DFT is turned on
   Fraction HF Exchange ScalHFX         ....  0.200000
   Scaling of DF-GGA-X  ScalDFX         ....  0.720000
   Scaling of DF-GGA-C  ScalDFC         ....  0.810000
   Scaling of DF-LDA-C  ScalLDAC        ....  1.000000
   Perturbative correction              ....  0.000000
   Density functional embedding theory  .... OFF
   NL short-range parameter             ....  4.800000
 RI-approximation to the Coulomb term is turned on
   Number of AuxJ basis functions       .... 262
   RIJ-COSX (HFX calculated with COS-X)).... on


General Settings:
 Integral files         IntName         .... C4H6_3d
 Hartree-Fock type      HFTyp           .... RHF
 Total Charge           Charge          ....    0
 Multiplicity           Mult            ....    1
 Number of Electrons    NEL             ....   30
 Basis Dimension        Dim             ....   86
 Nuclear Repulsion      ENuc            ....     80.1936030863 Eh

Convergence Acceleration:
 DIIS                   CNVDIIS         .... on
   Start iteration      DIISMaxIt       ....    12
   Startup error        DIISStart       ....  0.200000
   # of expansion vecs  DIISMaxEq       ....     5
   Bias factor          DIISBfac        ....   1.050
   Max. coefficient     DIISMaxC        ....  10.000
 Trust-Rad. Augm. Hess. CNVTRAH         .... auto
   Auto Start mean grad. ratio tolernc. ....  1.125000
   Auto Start start iteration           ....    20
   Auto Start num. interpolation iter.  ....    10
   Max. Number of Micro iterations      ....    16
   Max. Number of Macro iterations      .... Maxiter - #DIIS iter
   Number of Davidson start vectors     ....     2
   Converg. threshold I  (grad. norm)   ....   1.000e-05
   Converg. threshold II (energy diff.) ....   1.000e-08
   Grad. Scal. Fac. for Micro threshold ....   0.100
   Minimum threshold for Micro iter.    ....   0.010
   NR start threshold (gradient norm)   ....   0.001
   Initial trust radius                 ....   0.400
   Minimum AH scaling param. (alpha)    ....   1.000
   Maximum AH scaling param. (alpha)    .... 1000.000
   Orbital update algorithm             .... Taylor
   White noise on init. David. guess    .... on
   Maximum white noise                  ....   0.010
   Quad. conv. algorithm                .... NR
 SOSCF                  CNVSOSCF        .... on
   Start iteration      SOSCFMaxIt      ....   150
   Startup grad/error   SOSCFStart      ....  0.003300
 Level Shifting         CNVShift        .... on
   Level shift para.    LevelShift      ....    0.2500
   Turn off err/grad.   ShiftErr        ....    0.0010
 Zerner damping         CNVZerner       .... off
 Static damping         CNVDamp         .... on
   Fraction old density DampFac         ....    0.7000
   Max. Damping (<1)    DampMax         ....    0.9800
   Min. Damping (>=0)   DampMin         ....    0.0000
   Turn off err/grad.   DampErr         ....    0.1000
 Fernandez-Rico         CNVRico         .... off

SCF Procedure:
 Maximum # iterations   MaxIter         ....   125
 SCF integral mode      SCFMode         .... Direct
   Integral package                     .... SHARK and LIBINT hybrid scheme
 Reset frequency        DirectResetFreq ....    20
 Integral Threshold     Thresh          ....  2.500e-11 Eh
 Primitive CutOff       TCut            ....  2.500e-12 Eh

Convergence Tolerance:
 Convergence Check Mode ConvCheckMode   .... Total+1el-Energy
 Convergence forced     ConvForced      .... 0
 Energy Change          TolE            ....  1.000e-08 Eh
 1-El. energy change                    ....  1.000e-05 Eh
 Orbital Gradient       TolG            ....  1.000e-05
 Orbital Rotation angle TolX            ....  1.000e-05
 DIIS Error             TolErr          ....  5.000e-07


Diagonalization of the overlap matrix:
Smallest eigenvalue                        ... 1.033e-02
Time for diagonalization                   ...    0.001 sec
Threshold for overlap eigenvalues          ... 1.000e-08
Number of eigenvalues below threshold      ... 0
Time for construction of square roots      ...    0.000 sec
Total time needed                          ...    0.001 sec

Time for model grid setup =    0.042 sec

------------------------------
INITIAL GUESS: MODEL POTENTIAL
------------------------------
Loading Hartree-Fock densities                     ... done
Calculating cut-offs                               ... done
Initializing the effective Hamiltonian             ... done
Setting up the integral package (SHARK)            ... done
Starting the Coulomb interaction                   ... done (   0.0 sec)
Reading the grid                                   ... done
Mapping shells                                     ... done
Starting the XC term evaluation                    ... done (   0.0 sec)
  promolecular density results
     # of electrons  =     29.997686938
     EX              =    -21.762496046
     EC              =     -0.897597624
     EX+EC           =    -22.660093670
Transforming the Hamiltonian                       ... done (   0.0 sec)
Diagonalizing the Hamiltonian                      ... done (   0.0 sec)
Back transforming the eigenvectors                 ... done (   0.0 sec)
Now organizing SCF variables                       ... done
                      ------------------
                      INITIAL GUESS DONE (   0.1 sec)
                      ------------------
-------------------
DFT GRID GENERATION
-------------------

General Integration Accuracy     IntAcc      ... 4.388
Radial Grid Type                 RadialGrid  ... OptM3 with GC (2021)
Angular Grid (max. ang.)         AngularGrid ... 4 (Lebedev-302)
Angular grid pruning method      GridPruning ... 4 (adaptive)
Weight generation scheme         WeightScheme... Becke
Basis function cutoff            BFCut       ... 1.0000e-11
Integration weight cutoff        WCut        ... 1.0000e-14
Angular grids for H and He will be reduced by one unit
Partially contracted basis set               ... off
Rotationally invariant grid construction     ... off

Total number of grid points                  ...    44208
Total number of batches                      ...      694
Average number of points per batch           ...       63
Average number of grid points per atom       ...     4421
Time for grid setup =    0.215 sec

--------------------
COSX GRID GENERATION
--------------------

GRIDX 1
-------
General Integration Accuracy     IntAcc      ... 3.816
Radial Grid Type                 RadialGrid  ... OptM3 with GC (2021)
Angular Grid (max. ang.)         AngularGrid ... 1 (Lebedev-50)
Angular grid pruning method      GridPruning ... 4 (adaptive)
Weight generation scheme         WeightScheme... Becke
Basis function cutoff            BFCut       ... 1.0000e-11
Integration weight cutoff        WCut        ... 1.0000e-14
Angular grids for H and He will be reduced by one unit
Partially contracted basis set               ... on
Rotationally invariant grid construction     ... off

Total number of grid points                  ...     5723
Total number of batches                      ...       94
Average number of points per batch           ...       60
Average number of grid points per atom       ...      572
UseSFitting                                  ... on

GRIDX 2
-------
General Integration Accuracy     IntAcc      ... 4.020
Radial Grid Type                 RadialGrid  ... OptM3 with GC (2021)
Angular Grid (max. ang.)         AngularGrid ... 2 (Lebedev-110)
Angular grid pruning method      GridPruning ... 4 (adaptive)
Weight generation scheme         WeightScheme... Becke
Basis function cutoff            BFCut       ... 1.0000e-11
Integration weight cutoff        WCut        ... 1.0000e-14
Angular grids for H and He will be reduced by one unit
Partially contracted basis set               ... on
Rotationally invariant grid construction     ... off

Total number of grid points                  ...    12200
Total number of batches                      ...      197
Average number of points per batch           ...       61
Average number of grid points per atom       ...     1220
UseSFitting                                  ... on

GRIDX 3
-------
General Integration Accuracy     IntAcc      ... 4.338
Radial Grid Type                 RadialGrid  ... OptM3 with GC (2021)
Angular Grid (max. ang.)         AngularGrid ... 3 (Lebedev-194)
Angular grid pruning method      GridPruning ... 4 (adaptive)
Weight generation scheme         WeightScheme... Becke
Basis function cutoff            BFCut       ... 1.0000e-11
Integration weight cutoff        WCut        ... 1.0000e-14
Angular grids for H and He will be reduced by one unit
Partially contracted basis set               ... on
Rotationally invariant grid construction     ... off

Total number of grid points                  ...    26846
Total number of batches                      ...      426
Average number of points per batch           ...       63
Average number of grid points per atom       ...     2685
UseSFitting                                  ... on

Time for X-Grid setup             =    0.289 sec

--------------
SCF ITERATIONS
--------------
ITER       Energy         Delta-E        Max-DP      RMS-DP      [F,P]     Damp
               ***  Starting incremental Fock matrix formation  ***
  0   -155.1092511322   0.000000000000 0.04305308  0.00150747  0.0799380 0.7000
  1   -155.1245672588  -0.015316126655 0.02899946  0.00111676  0.0303736 0.7000
                               ***Turning on DIIS***
  2   -155.1284605403  -0.003893281497 0.03790950  0.00184899  0.0139648 0.0000
  3   -155.1332566805  -0.004796140219 0.02079732  0.00089529  0.0282873 0.0000
  4   -155.1365591309  -0.003302450341 0.01615430  0.00046627  0.0122945 0.0000
  5   -155.1372082191  -0.000649088284 0.00271431  0.00015993  0.0035288 0.0000
                      *** Initiating the SOSCF procedure ***
                           *** Shutting down DIIS ***
                      *** Re-Reading the Fockian *** 
                      *** Removing any level shift *** 
ITER      Energy       Delta-E        Grad      Rot      Max-DP    RMS-DP
  6   -155.13728818  -0.0000799632  0.001004  0.001004  0.001308  0.000075
               *** Restarting incremental Fock matrix formation ***
  7   -155.13730825  -0.0000200631  0.000464  0.004626  0.002053  0.000132
  8   -155.13730887  -0.0000006218  0.000737  0.002779  0.001387  0.000085
  9   -155.13731597  -0.0000071005  0.000551  0.001398  0.002118  0.000085
 10   -155.13731200   0.0000039708  0.000627  0.002107  0.001405  0.000064
 11   -155.13731951  -0.0000075167  0.000441  0.003258  0.002108  0.000074
 12   -155.13731389   0.0000056251  0.000703  0.001455  0.001447  0.000049
 13   -155.13732129  -0.0000073985  0.000068  0.000617  0.000291  0.000019
 14   -155.13732113   0.0000001524  0.000115  0.000225  0.000250  0.000011
 15   -155.13732144  -0.0000003053  0.000028  0.000208  0.000142  0.000007
 16   -155.13732144  -0.0000000034  0.000026  0.000117  0.000071  0.000004
                  ***Gradient check signals convergence***
              ***Rediagonalizing the Fockian in SOSCF/NRSCF***

               *****************************************************
               *                     SUCCESS                       *
               *           SCF CONVERGED AFTER  17 CYCLES          *
               *****************************************************

Old exchange energy                            =     -4.300921805 Eh
New exchange energy                            =     -4.300933746 Eh
Exchange energy change after final integration =     -0.000011941 Eh
Total energy after final integration           =   -155.137333406 Eh
Final COS-X integration done in                =     1.177 sec

----------------
TOTAL SCF ENERGY
----------------

Total Energy       :         -155.13733341 Eh           -4221.50146 eV

Components:
Nuclear Repulsion  :           80.19360309 Eh            2182.17888 eV
Electronic Energy  :         -235.33093649 Eh           -6403.68034 eV
One Electron Energy:         -365.84764406 Eh           -9955.22051 eV
Two Electron Energy:          130.51670757 Eh            3551.54017 eV
Max COSX asymmetry :            0.00000121 Eh               0.00003 eV

Virial components:
Potential Energy   :         -306.39614219 Eh           -8337.46290 eV
Kinetic Energy     :          151.25880878 Eh            4115.96144 eV
Virial Ratio       :            2.02564164


DFT components:
N(Alpha)           :       14.999997157834 electrons
N(Beta)            :       14.999997157834 electrons
N(Total)           :       29.999994315667 electrons
E(X)               :      -17.253465330093 Eh       
E(C)               :       -1.071770202381 Eh       
E(XC)              :      -18.325235532474 Eh       
DFET-embed. en.    :        0.000000000000 Eh       

---------------
SCF CONVERGENCE
---------------

  Last Energy change         ...   -2.1357e-08  Tolerance :   1.0000e-08
  Last MAX-Density change    ...    3.1086e-15  Tolerance :   1.0000e-07
  Last RMS-Density change    ...    5.2581e-17  Tolerance :   5.0000e-09
  Last Orbital Gradient      ...    1.0094e-06  Tolerance :   1.0000e-05
  Last Orbital Rotation      ...    5.4848e-06  Tolerance :   1.0000e-05

             **** THE GBW FILE WAS UPDATED (C4H6_3d.gbw) ****
             **** DENSITY C4H6_3d.scfp WAS UPDATED ****
             **** ENERGY FILE WAS UPDATED (C4H6_3d.en.tmp) ****
             **** THE GBW FILE WAS UPDATED (C4H6_3d.gbw) ****
             **** DENSITY C4H6_3d.scfp WAS UPDATED ****
----------------
ORBITAL ENERGIES
----------------

  NO   OCC          E(Eh)            E(eV) 
   0   2.0000     -10.318422      -280.7785 
   1   2.0000     -10.310310      -280.5578 
   2   2.0000     -10.293534      -280.1013 
   3   2.0000     -10.279898      -279.7303 
   4   2.0000      -0.691251       -18.8099 
   5   2.0000      -0.629775       -17.1370 
   6   2.0000      -0.571476       -15.5507 
   7   2.0000      -0.500203       -13.6112 
   8   2.0000      -0.404453       -11.0057 
   9   2.0000      -0.370707       -10.0875 
  10   2.0000      -0.354083        -9.6351 
  11   2.0000      -0.316650        -8.6165 
  12   2.0000      -0.278414        -7.5760 
  13   2.0000      -0.272709        -7.4208 
  14   2.0000      -0.222803        -6.0628 
  15   0.0000      -0.122909        -3.3445 
  16   0.0000      -0.097658        -2.6574 
  17   0.0000      -0.051824        -1.4102 
  18   0.0000      -0.035091        -0.9549 
  19   0.0000      -0.012295        -0.3346 
  20   0.0000      -0.002017        -0.0549 
  21   0.0000       0.045705         1.2437 
  22   0.0000       0.058768         1.5992 
  23   0.0000       0.091698         2.4952 
  24   0.0000       0.125029         3.4022 
  25   0.0000       0.208134         5.6636 
  26   0.0000       0.364136         9.9087 
  27   0.0000       0.402043        10.9402 
  28   0.0000       0.415346        11.3021 
  29   0.0000       0.433934        11.8080 
  30   0.0000       0.453014        12.3271 
  31   0.0000       0.462295        12.5797 
  32   0.0000       0.469864        12.7856 
  33   0.0000       0.499158        13.5828 
  34   0.0000       0.505048        13.7431 
  35   0.0000       0.509649        13.8683 
  36   0.0000       0.525065        14.2877 
  37   0.0000       0.538092        14.6422 
  38   0.0000       0.561472        15.2784 
  39   0.0000       0.591761        16.1026 
  40   0.0000       0.616629        16.7793 
  41   0.0000       0.633367        17.2348 
  42   0.0000       0.650782        17.7087 
  43   0.0000       0.667288        18.1578 
  44   0.0000       0.729352        19.8467 
  45   0.0000       0.746576        20.3154 
  46   0.0000       0.816437        22.2164 
  47   0.0000       0.919205        25.0128 
  48   0.0000       1.214877        33.0585 
  49   0.0000       1.259454        34.2715 
  50   0.0000       1.288896        35.0726 
  51   0.0000       1.325795        36.0767 
  52   0.0000       1.329008        36.1641 
  53   0.0000       1.363894        37.1134 
  54   0.0000       1.380158        37.5560 
  55   0.0000       1.404976        38.2314 
  56   0.0000       1.410908        38.3928 
  57   0.0000       1.463811        39.8323 
  58   0.0000       1.490247        40.5517 
  59   0.0000       1.499702        40.8090 
  60   0.0000       1.521875        41.4123 
  61   0.0000       1.569159        42.6990 
  62   0.0000       1.589065        43.2406 
  63   0.0000       1.617839        44.0236 
  64   0.0000       1.630595        44.3707 
  65   0.0000       1.655901        45.0594 
  66   0.0000       1.713135        46.6168 
  67   0.0000       1.722111        46.8610 
  68   0.0000       1.737083        47.2684 
  69   0.0000       1.783389        48.5285 
  70   0.0000       1.792798        48.7845 
  71   0.0000       1.831756        49.8446 
  72   0.0000       1.883439        51.2510 
  73   0.0000       1.919692        52.2375 
  74   0.0000       1.937974        52.7350 
  75   0.0000       1.991659        54.1958 
  76   0.0000       2.067670        56.2642 
  77   0.0000       2.116976        57.6058 
  78   0.0000       2.177245        59.2458 
  79   0.0000       2.225901        60.5698 
  80   0.0000       2.231695        60.7275 
  81   0.0000       2.342389        63.7396 
  82   0.0000       2.440676        66.4142 
  83   0.0000       2.506396        68.2025 
  84   0.0000       2.536584        69.0240 
  85   0.0000       2.750051        74.8327 

                    ********************************
                    * MULLIKEN POPULATION ANALYSIS *
                    ********************************

-----------------------
MULLIKEN ATOMIC CHARGES
-----------------------
   0 C :   -0.109049
   1 C :   -0.057118
   2 C :   -0.170529
   3 C :   -0.130660
   4 H :    0.076549
   5 H :    0.097179
   6 H :    0.073887
   7 H :    0.109913
   8 H :    0.126783
   9 H :   -0.016957
Sum of atomic charges:    0.0000000

--------------------------------
MULLIKEN REDUCED ORBITAL CHARGES
--------------------------------
  0 C s       :     3.382410  s :     3.382410
      pz      :     0.886772  p :     2.708701
      px      :     0.856463
      py      :     0.965467
      dz2     :     0.002311  d :     0.017938
      dxz     :     0.006516
      dyz     :     0.001750
      dx2y2   :     0.003182
      dxy     :     0.004178
  1 C s       :     3.548421  s :     3.548421
      pz      :     0.624108  p :     2.491670
      px      :     0.846902
      py      :     1.020661
      dz2     :     0.004408  d :     0.017026
      dxz     :     0.005952
      dyz     :     0.001273
      dx2y2   :     0.000969
      dxy     :     0.004423
  2 C s       :     3.367164  s :     3.367164
      pz      :     0.958943  p :     2.790431
      px      :     0.886843
      py      :     0.944646
      dz2     :     0.002273  d :     0.012934
      dxz     :     0.005061
      dyz     :     0.000458
      dx2y2   :     0.002602
      dxy     :     0.002539
  3 C s       :     3.625561  s :     3.625561
      pz      :     0.807127  p :     2.497223
      px      :     0.982708
      py      :     0.707388
      dz2     :     0.002367  d :     0.007876
      dxz     :     0.003513
      dyz     :     0.000949
      dx2y2   :     0.000082
      dxy     :     0.000965
  4 H s       :     0.908681  s :     0.908681
      pz      :     0.008409  p :     0.014769
      px      :     0.004227
      py      :     0.002133
  5 H s       :     0.886355  s :     0.886355
      pz      :     0.004556  p :     0.016466
      px      :     0.008258
      py      :     0.003653
  6 H s       :     0.915006  s :     0.915006
      pz      :     0.005101  p :     0.011107
      px      :     0.003437
      py      :     0.002569
  7 H s       :     0.875698  s :     0.875698
      pz      :     0.001686  p :     0.014388
      px      :     0.006234
      py      :     0.006469
  8 H s       :     0.857373  s :     0.857373
      pz      :     0.006437  p :     0.015843
      px      :     0.007192
      py      :     0.002214
  9 H s       :     1.008623  s :     1.008623
      pz      :     0.004891  p :     0.008333
      px      :     0.002671
      py      :     0.000771


                     *******************************
                     * LOEWDIN POPULATION ANALYSIS *
                     *******************************

----------------------
LOEWDIN ATOMIC CHARGES
----------------------
   0 C :   -0.095391
   1 C :   -0.081906
   2 C :   -0.134237
   3 C :   -0.113535
   4 H :    0.065863
   5 H :    0.075121
   6 H :    0.072262
   7 H :    0.094160
   8 H :    0.108620
   9 H :    0.009043

-------------------------------
LOEWDIN REDUCED ORBITAL CHARGES
-------------------------------
  0 C s       :     3.158202  s :     3.158202
      pz      :     0.952510  p :     2.902052
      px      :     0.966833
      py      :     0.982709
      dz2     :     0.004367  d :     0.035136
      dxz     :     0.013622
      dyz     :     0.002917
      dx2y2   :     0.006317
      dxy     :     0.007914
  1 C s       :     3.320949  s :     3.320949
      pz      :     0.734921  p :     2.730223
      px      :     0.934542
      py      :     1.060760
      dz2     :     0.007833  d :     0.030734
      dxz     :     0.011792
      dyz     :     0.001857
      dx2y2   :     0.001515
      dxy     :     0.007737
  2 C s       :     3.132645  s :     3.132645
      pz      :     1.023479  p :     2.974936
      px      :     0.994031
      py      :     0.957426
      dz2     :     0.005396  d :     0.026656
      dxz     :     0.010843
      dyz     :     0.000858
      dx2y2   :     0.004788
      dxy     :     0.004771
  3 C s       :     3.451872  s :     3.451872
      pz      :     0.884220  p :     2.648815
      px      :     1.045843
      py      :     0.718752
      dz2     :     0.004003  d :     0.012848
      dxz     :     0.006045
      dyz     :     0.001157
      dx2y2   :     0.000283
      dxy     :     0.001360
  4 H s       :     0.898193  s :     0.898193
      pz      :     0.020665  p :     0.035943
      px      :     0.010464
      py      :     0.004814
  5 H s       :     0.882534  s :     0.882534
      pz      :     0.009929  p :     0.042345
      px      :     0.023073
      py      :     0.009343
  6 H s       :     0.902740  s :     0.902740
      pz      :     0.011684  p :     0.024998
      px      :     0.007882
      py      :     0.005432
  7 H s       :     0.869718  s :     0.869718
      pz      :     0.003473  p :     0.036122
      px      :     0.015471
      py      :     0.017177
  8 H s       :     0.855600  s :     0.855600
      pz      :     0.015113  p :     0.035780
      px      :     0.014891
      py      :     0.005776
  9 H s       :     0.975959  s :     0.975959
      pz      :     0.009048  p :     0.014997
      px      :     0.004244
      py      :     0.001705


                      *****************************
                      * MAYER POPULATION ANALYSIS *
                      *****************************

  NA   - Mulliken gross atomic population
  ZA   - Total nuclear charge
  QA   - Mulliken gross atomic charge
  VA   - Mayer's total valence
  BVA  - Mayer's bonded valence
  FA   - Mayer's free valence

  ATOM       NA         ZA         QA         VA         BVA        FA
  0 C      6.1090     6.0000    -0.1090     3.7575     3.7575     0.0000
  1 C      6.0571     6.0000    -0.0571     3.3830     3.3830    -0.0000
  2 C      6.1705     6.0000    -0.1705     3.8170     3.8170    -0.0000
  3 C      6.1307     6.0000    -0.1307     3.3230     3.3230    -0.0000
  4 H      0.9235     1.0000     0.0765     0.9684     0.9684    -0.0000
  5 H      0.9028     1.0000     0.0972     0.9656     0.9656    -0.0000
  6 H      0.9261     1.0000     0.0739     0.9768     0.9768     0.0000
  7 H      0.8901     1.0000     0.1099     0.9672     0.9672    -0.0000
  8 H      0.8732     1.0000     0.1268     0.9503     0.9503     0.0000
  9 H      1.0170     1.0000    -0.0170     0.9710     0.9710     0.0000

  Mayer bond orders larger than 0.100000
B(  0-C ,  1-C ) :   1.0193 B(  0-C ,  2-C ) :   1.7429 B(  0-C ,  6-H ) :   0.8907 
B(  1-C ,  3-C ) :   1.3099 B(  1-C ,  7-H ) :   0.8706 B(  2-C ,  3-C ) :   0.1183 
B(  2-C ,  4-H ) :   0.9366 B(  2-C ,  5-H ) :   0.9290 B(  3-C ,  8-H ) :   0.8681 
B(  3-C ,  9-H ) :   0.9278 

-------
TIMINGS
-------

Total SCF time: 0 days 0 hours 0 min 13 sec 

Total time                  ....      13.133 sec
Sum of individual times     ....      13.055 sec  ( 99.4%)

Fock matrix formation       ....      12.426 sec  ( 94.6%)
  Split-RI-J                ....       0.789 sec  (  6.3% of F)
  Chain of spheres X        ....       8.948 sec  ( 72.0% of F)
  XC integration            ....       2.682 sec  ( 21.6% of F)
    Basis function eval.    ....       1.072 sec  ( 40.0% of XC)
    Density eval.           ....       0.616 sec  ( 23.0% of XC)
    XC-Functional eval.     ....       0.319 sec  ( 11.9% of XC)
    XC-Potential eval.      ....       0.527 sec  ( 19.7% of XC)
Diagonalization             ....       0.011 sec  (  0.1%)
Density matrix formation    ....       0.001 sec  (  0.0%)
Population analysis         ....       0.001 sec  (  0.0%)
Initial guess               ....       0.059 sec  (  0.4%)
Orbital Transformation      ....       0.000 sec  (  0.0%)
Orbital Orthonormalization  ....       0.000 sec  (  0.0%)
DIIS solution               ....       0.006 sec  (  0.0%)
SOSCF solution              ....       0.005 sec  (  0.0%)
Grid generation             ....       0.547 sec  (  4.2%)

Maximum memory used throughout the entire SCF-calculation: 51.0 MB

-------------------------   --------------------
FINAL SINGLE POINT ENERGY      -155.137333405887
-------------------------   --------------------

------------------------------------------------------------------------------
                         ORCA SCF GRADIENT CALCULATION
------------------------------------------------------------------------------

 ... reading COSX grid (gridx3)
Gradient of the Kohn-Sham DFT energy:
Kohn-Sham wavefunction type      ... RKS
Hartree-Fock exchange scaling    ...    0.200
Number of operators              ...    1
Number of atoms                  ...   10
Basis set dimensions             ...   86
Integral neglect threshold       ... 2.5e-11
Integral primitive cutoff        ... 2.5e-12
SHARK Integral package           ... ON

Nuc. rep. gradient       (SHARK) ... done (  0.0 sec)
HCore & Overlap gradient (SHARK) ... done (  0.0 sec)
RI-J gradient            (SHARK) ... done (  0.2 sec)
COSX-gradient                    ... done (  1.4 sec)
Exchange-correlation gradient    ... done

------------------
CARTESIAN GRADIENT
------------------

   1   C   :   -0.031637722   -0.027575923    0.039921307
   2   C   :   -0.063365154    0.055762031   -0.007032389
   3   C   :    0.011417109    0.001310404    0.018012973
   4   C   :    0.007980414   -0.011976365   -0.054718450
   5   H   :    0.067336080    0.006587368   -0.060239013
   6   H   :    0.085022322    0.027101606    0.005706726
   7   H   :   -0.061721056   -0.036071165   -0.059932403
   8   H   :   -0.056017690   -0.056383770   -0.035341095
   9   H   :    0.038998450    0.023540288    0.081277665
  10   H   :    0.001994192    0.017704382    0.072378509

Difference to translation invariance:
           :    0.0000069447   -0.0000011443    0.0000338290

Difference to rotation invariance:
           :    0.0000453276   -0.0000211123    0.0000178523

Norm of the cartesian gradient     ...    0.2467686364
RMS gradient                       ...    0.0450535829
MAX gradient                       ...    0.0850223220

-------
TIMINGS
-------

Total SCF gradient time            ...        2.616 sec

One electron gradient       ....       0.028 sec  (  1.1%)
RI-J Coulomb gradient       ....       0.185 sec  (  7.1%)
COSX gradient               ....       1.425 sec  ( 54.5%)
XC gradient                 ....       0.856 sec  ( 32.7%)

Maximum memory used throughout the entire SCFGRAD-calculation: 39.8 MB
------------------------------------------------------------------------------
                         ORCA GEOMETRY RELAXATION STEP
------------------------------------------------------------------------------

Reading the OPT-File                    .... done
Getting information on internals        .... done
Copying old internal coords+grads       .... done
Making the new internal coordinates     .... (new redundants).... done
Validating the new internal coordinates .... (new redundants).... done
Calculating the B-matrix                .... done
Calculating the G,G- and P matrices     .... done
Transforming gradient to internals      .... done
Projecting the internal gradient        .... done
Number of atoms                         ....  10
Number of internal coordinates          ....  38
Current Energy                          ....  -155.137333406 Eh
Current gradient norm                   ....     0.246768636 Eh/bohr
Maximum allowed component of the step   ....  0.300
Current trust radius                    ....  0.300
Evaluating the initial hessian          ....  (Almloef) done
Projecting the Hessian                  .... done
Forming the augmented Hessian           .... done
Diagonalizing the augmented Hessian     .... done
Last element of RFO vector              ....  0.773239934
Lowest eigenvalues of augmented Hessian:
 -0.261785970  0.001875116  0.002672160  0.004155730  0.004194440
Length of the computed step             ....  0.820073474
Warning: the length of the step is outside the trust region - taking restricted step instead
The input lambda is                     ....    -0.261786
   iter:   1  x=   -0.426992  g=    3.526031 f(x)=     0.582521
   iter:   2  x=   -0.628086  g=    1.189521 f(x)=     0.239205
   iter:   3  x=   -0.815198  g=    0.467664 f(x)=     0.087506
   iter:   4  x=   -0.916120  g=    0.240983 f(x)=     0.024320
   iter:   5  x=   -0.935269  g=    0.177792 f(x)=     0.003405
   iter:   6  x=   -0.935810  g=    0.168388 f(x)=     0.000091
   iter:   7  x=   -0.935810  g=    0.168132 f(x)=     0.000000
   iter:   8  x=   -0.935810  g=    0.168132 f(x)=     0.000000
   iter:   9  x=   -0.935810  g=    0.168132 f(x)=    -0.000000
The output lambda is                    ....    -0.935810 (9 iterations)
The final length of the internal step   ....  0.300000000
Converting the step to cartesian space:
 Initial RMS(Int)=    0.0486664263
Transforming coordinates:
 Iter   0:  RMS(Cart)=    0.1016415072 RMS(Int)=    1.0202496207
 Iter   1:  RMS(Cart)=    0.0008529428 RMS(Int)=    0.0004898262
 Iter   2:  RMS(Cart)=    0.0000284125 RMS(Int)=    0.0000187629
 Iter   3:  RMS(Cart)=    0.0000007409 RMS(Int)=    0.0000004954
 Iter   4:  RMS(Cart)=    0.0000000285 RMS(Int)=    0.0000000242
done
Storing new coordinates                 .... done

                                .--------------------.
          ----------------------|Geometry convergence|-------------------------
          Item                value                   Tolerance       Converged
          ---------------------------------------------------------------------
          RMS gradient        0.0523373888            0.0001000000      NO
          MAX gradient        0.1713836783            0.0003000000      NO
          RMS step            0.0486664263            0.0020000000      NO
          MAX step            0.1481362393            0.0040000000      NO
          ........................................................
          Max(Bonds)      0.0784      Max(Angles)    2.63
          Max(Dihed)        0.65      Max(Improp)    0.00
          ---------------------------------------------------------------------

The optimization has not yet converged - more geometry cycles are needed


    ---------------------------------------------------------------------------
                         Redundant Internal Coordinates
                            (Angstroem and degrees)

        Definition                    Value    dE/dq     Step     New-Value
    ----------------------------------------------------------------------------
     1. B(C   1,C   0)                1.7792  0.094401 -0.0460    1.7332   
     2. B(C   2,C   0)                1.6727  0.171384 -0.0784    1.5944   
     3. B(C   3,C   1)                1.9309  0.112918 -0.0585    1.8724   
     4. B(H   4,C   2)                1.3881  0.085646 -0.0429    1.3452   
     5. B(H   5,C   2)                1.3413  0.083046 -0.0407    1.3005   
     6. B(H   6,C   0)                1.4980  0.092777 -0.0483    1.4497   
     7. B(H   7,C   1)                1.3945  0.085347 -0.0429    1.3516   
     8. B(H   8,C   3)                1.4920  0.089111 -0.0459    1.4461   
     9. B(H   9,H   8)                1.7692 -0.008340  0.0033    1.7725   
    10. B(H   9,C   3)                1.7330  0.075118 -0.0400    1.6930   
    11. A(C   1,C   0,C   2)          136.86  0.015777   -0.75    136.11   
    12. A(C   2,C   0,H   6)          119.43  0.006384   -0.33    119.10   
    13. A(C   1,C   0,H   6)          100.69 -0.021384    1.04    101.73   
    14. A(C   3,C   1,H   7)          124.48  0.019772   -1.03    123.45   
    15. A(C   0,C   1,C   3)          111.13 -0.000785    0.05    111.19   
    16. A(C   0,C   1,H   7)           98.21 -0.015902    0.82     99.02   
    17. A(C   0,C   2,H   4)          131.08  0.023046   -1.14    129.94   
    18. A(H   4,C   2,H   5)           87.18 -0.053537    2.63     89.81   
    19. A(C   0,C   2,H   5)          141.74  0.030490   -1.49    140.25   
    20. A(H   8,C   3,H   9)           66.05 -0.038000    2.12     68.16   
    21. A(C   1,C   3,H   9)          135.73  0.019212   -1.08    134.65   
    22. A(C   1,C   3,H   8)          152.13  0.024294   -1.34    150.79   
    23. A(C   3,H   8,H   9)           63.53  0.017174   -0.99     62.55   
    24. A(C   3,H   9,H   8)           50.42  0.020826   -1.13     49.29   
    25. D(C   3,C   1,C   0,H   6)    159.67  0.005210   -0.27    159.39   
    26. D(C   3,C   1,C   0,C   2)    -41.48  0.006239   -0.32    -41.80   
    27. D(H   7,C   1,C   0,C   2)   -173.47 -0.006753    0.37   -173.11   
    28. D(H   7,C   1,C   0,H   6)     27.67 -0.007782    0.41     28.08   
    29. D(H   4,C   2,C   0,H   6)      0.00  0.003191   -0.20     -0.20   
    30. D(H   5,C   2,C   0,C   1)     24.02  0.001089   -0.06     23.96   
    31. D(H   4,C   2,C   0,C   1)   -155.98  0.005409   -0.32   -156.30   
    32. D(H   5,C   2,C   0,H   6)    180.00 -0.001129    0.06    180.06   
    33. D(H   9,C   3,C   1,H   7)    -54.69 -0.004575    0.24    -54.45   
    34. D(H   9,C   3,C   1,C   0)   -171.51  0.003693   -0.18   -171.69   
    35. D(H   8,C   3,C   1,H   7)    171.22 -0.005270    0.28    171.50   
    36. D(H   8,C   3,C   1,C   0)     54.40  0.002998   -0.14     54.26   
    37. D(H   9,H   8,C   3,C   1)    146.73  0.002296   -0.14    146.59   
    38. D(H   8,H   9,C   3,C   1)   -158.45 -0.011747    0.65   -157.80   
    ----------------------------------------------------------------------------

         *************************************************************
         *                GEOMETRY OPTIMIZATION CYCLE   2            *
         *************************************************************
---------------------------------
CARTESIAN COORDINATES (ANGSTROEM)
---------------------------------
  C     -0.907325   -0.781925   -1.688997
  C     -2.095379   -0.262256   -0.539077
  C      0.611635   -0.422547   -2.013934
  C     -1.344548   -0.057005    1.163852
  H      1.306810   -0.563290   -3.156931
  H      1.668146    0.069738   -1.436999
  H     -1.736869   -1.348662   -2.734139
  H     -3.068862   -1.156460   -0.821218
  H     -0.347994    0.513090    2.043386
  H     -1.966970    0.239862    2.710311

----------------------------
CARTESIAN COORDINATES (A.U.)
----------------------------
  NO LB      ZA    FRAG     MASS         X           Y           Z
   0 C     6.0000    0    12.011   -1.714596   -1.477624   -3.191742
   1 C     6.0000    0    12.011   -3.959693   -0.495593   -1.018707
   2 C     6.0000    0    12.011    1.155823   -0.798499   -3.805784
   3 C     6.0000    0    12.011   -2.540827   -0.107724    2.199361
   4 H     1.0000    0     1.008    2.469514   -1.064465   -5.965735
   5 H     1.0000    0     1.008    3.152340    0.131785   -2.715534
   6 H     1.0000    0     1.008   -3.282207   -2.548603   -5.166774
   7 H     1.0000    0     1.008   -5.799308   -2.185393   -1.551877
   8 H     1.0000    0     1.008   -0.657613    0.969600    3.861440
   9 H     1.0000    0     1.008   -3.717034    0.453274    5.121745

--------------------------------
INTERNAL COORDINATES (ANGSTROEM)
--------------------------------
 C      0   0   0     0.000000000000     0.00000000     0.00000000
 C      1   0   0     1.733160594942     0.00000000     0.00000000
 C      1   2   0     1.594357198512   136.11252222     0.00000000
 C      2   1   3     1.872388945755   111.18750795   318.20038907
 H      3   1   2     1.345183836612   129.93644034   203.69652389
 H      3   1   2     1.300544326535   140.25125000    23.95983286
 H      1   2   3     1.449709183764   101.72987210   201.19297995
 H      2   1   3     1.351618647878    99.02381529   186.89167648
 H      4   2   1     1.446274111304   150.76439570    54.25375264
 H      4   2   1     1.693243863960   134.62521607   188.31760469

---------------------------
INTERNAL COORDINATES (A.U.)
---------------------------
 C      0   0   0     0.000000000000     0.00000000     0.00000000
 C      1   0   0     3.275198870544     0.00000000     0.00000000
 C      1   2   0     3.012898464833   136.11252222     0.00000000
 C      2   1   3     3.538302323658   111.18750795   318.20038907
 H      3   1   2     2.542029050975   129.93644034   203.69652389
 H      3   1   2     2.457672602177   140.25125000    23.95983286
 H      1   2   3     2.739553331145   101.72987210   201.19297995
 H      2   1   3     2.554189081991    99.02381529   186.89167648
 H      4   2   1     2.733061984945   150.76439570    54.25375264
 H      4   2   1     3.199767180826   134.62521607   188.31760469

------------------------------------------------------------------------------
                   ___                                                        
                  /   \      - P O W E R E D   B Y -                         
                 /     \                                                     
                 |  |  |   _    _      __       _____    __    __             
                 |  |  |  | |  | |    /  \     |  _  \  |  |  /  |          
                  \  \/   | |  | |   /    \    | | | |  |  | /  /          
                 / \  \   | |__| |  /  /\  \   | |_| |  |  |/  /          
                |  |  |   |  __  | /  /__\  \  |    /   |      \           
                |  |  |   | |  | | |   __   |  |    \   |  |\   \          
                \     /   | |  | | |  |  |  |  | |\  \  |  | \   \       
                 \___/    |_|  |_| |__|  |__|  |_| \__\ |__|  \__/        
                                                                              
                      - O R C A' S   B I G   F R I E N D -                    
                                      &                                       
                       - I N T E G R A L  F E E D E R -                       
                                                                              
 v1 FN, 2020, v2 2021                                                         
------------------------------------------------------------------------------


Reading SHARK input file C4H6_3d.SHARKINP.tmp ... ok
----------------------
SHARK INTEGRAL PACKAGE
----------------------

Number of atoms                             ...     10
Number of basis functions                   ...     86
Number of shells                            ...     42
Maximum angular momentum                    ...      2
Integral batch strategy                     ... SHARK/LIBINT Hybrid
RI-J (if used) integral strategy            ... SPLIT-RIJ (Revised 2003 algorithm where possible)
Printlevel                                  ...      1
Contraction scheme used                     ... SEGMENTED contraction
Coulomb Range Separation                    ... NOT USED
Exchange Range Separation                   ... NOT USED
Finite Nucleus Model                        ... NOT USED
Auxiliary Coulomb fitting basis             ... AVAILABLE
   # of basis functions in Aux-J            ...    262
   # of shells in Aux-J                     ...     90
   Maximum angular momentum in Aux-J        ...      4
Auxiliary J/K fitting basis                 ... NOT available
Auxiliary Correlation fitting basis         ... NOT available
Auxiliary 'external' fitting basis          ... NOT available
Integral threshold                          ...     2.500000e-11
Primitive cut-off                           ...     2.500000e-12
Primitive pair pre-selection threshold      ...     2.500000e-12

Calculating pre-screening integrals         ... done (  0.0 sec) Dimension = 42
Organizing shell pair data                  ... done (  0.0 sec)
Shell pair information
Total number of shell pairs                 ...       903
Shell pairs after pre-screening             ...       860
Total number of primitive shell pairs       ...      3151
Primitive shell pairs kept                  ...      2322
          la=0 lb=0:    291 shell pairs
          la=1 lb=0:    316 shell pairs
          la=1 lb=1:     96 shell pairs
          la=2 lb=0:     93 shell pairs
          la=2 lb=1:     54 shell pairs
          la=2 lb=2:     10 shell pairs

Calculating one electron integrals          ... done (  0.0 sec)
Calculating RI/J V-Matrix + Cholesky decomp.... done (  0.0 sec)
Calculating Nuclear repulsion               ... done (  0.0 sec) ENN=     82.976082926961 Eh

SHARK setup successfully completed in   0.1 seconds

Maximum memory used throughout the entire GTOINT-calculation: 9.6 MB

Diagonalization of the overlap matrix:
Smallest eigenvalue                        ... 8.268e-03
Time for diagonalization                   ...    0.001 sec
Threshold for overlap eigenvalues          ... 1.000e-08
Number of eigenvalues below threshold      ... 0
Time for construction of square roots      ...    0.000 sec
Total time needed                          ...    0.001 sec

-------------------
DFT GRID GENERATION
-------------------

General Integration Accuracy     IntAcc      ... 4.388
Radial Grid Type                 RadialGrid  ... OptM3 with GC (2021)
Angular Grid (max. ang.)         AngularGrid ... 4 (Lebedev-302)
Angular grid pruning method      GridPruning ... 4 (adaptive)
Weight generation scheme         WeightScheme... Becke
Basis function cutoff            BFCut       ... 1.0000e-11
Integration weight cutoff        WCut        ... 1.0000e-14
Angular grids for H and He will be reduced by one unit
Partially contracted basis set               ... off
Rotationally invariant grid construction     ... off

Total number of grid points                  ...    44175
Total number of batches                      ...      696
Average number of points per batch           ...       63
Average number of grid points per atom       ...     4418
Time for grid setup =    0.212 sec

--------------------
COSX GRID GENERATION
--------------------

GRIDX 1
-------
General Integration Accuracy     IntAcc      ... 3.816
Radial Grid Type                 RadialGrid  ... OptM3 with GC (2021)
Angular Grid (max. ang.)         AngularGrid ... 1 (Lebedev-50)
Angular grid pruning method      GridPruning ... 4 (adaptive)
Weight generation scheme         WeightScheme... Becke
Basis function cutoff            BFCut       ... 1.0000e-11
Integration weight cutoff        WCut        ... 1.0000e-14
Angular grids for H and He will be reduced by one unit
Partially contracted basis set               ... on
Rotationally invariant grid construction     ... off

Total number of grid points                  ...     5715
Total number of batches                      ...       95
Average number of points per batch           ...       60
Average number of grid points per atom       ...      572
UseSFitting                                  ... on

GRIDX 2
-------
General Integration Accuracy     IntAcc      ... 4.020
Radial Grid Type                 RadialGrid  ... OptM3 with GC (2021)
Angular Grid (max. ang.)         AngularGrid ... 2 (Lebedev-110)
Angular grid pruning method      GridPruning ... 4 (adaptive)
Weight generation scheme         WeightScheme... Becke
Basis function cutoff            BFCut       ... 1.0000e-11
Integration weight cutoff        WCut        ... 1.0000e-14
Angular grids for H and He will be reduced by one unit
Partially contracted basis set               ... on
Rotationally invariant grid construction     ... off

Total number of grid points                  ...    12184
Total number of batches                      ...      197
Average number of points per batch           ...       61
Average number of grid points per atom       ...     1218
UseSFitting                                  ... on

GRIDX 3
-------
General Integration Accuracy     IntAcc      ... 4.338
Radial Grid Type                 RadialGrid  ... OptM3 with GC (2021)
Angular Grid (max. ang.)         AngularGrid ... 3 (Lebedev-194)
Angular grid pruning method      GridPruning ... 4 (adaptive)
Weight generation scheme         WeightScheme... Becke
Basis function cutoff            BFCut       ... 1.0000e-11
Integration weight cutoff        WCut        ... 1.0000e-14
Angular grids for H and He will be reduced by one unit
Partially contracted basis set               ... on
Rotationally invariant grid construction     ... off

Total number of grid points                  ...    26811
Total number of batches                      ...      425
Average number of points per batch           ...       63
Average number of grid points per atom       ...     2681
UseSFitting                                  ... on

Time for X-Grid setup             =    0.202 sec

--------------
SCF ITERATIONS
--------------
ITER       Energy         Delta-E        Max-DP      RMS-DP      [F,P]     Damp
               ***  Starting incremental Fock matrix formation  ***
  0   -155.2306910438   0.000000000000 0.00504656  0.00030809  0.0170049 0.7000
                      *** Initiating the SOSCF procedure ***
                      *** Re-Reading the Fockian *** 
                      *** Removing any level shift *** 
ITER      Energy       Delta-E        Grad      Rot      Max-DP    RMS-DP
  1   -155.23148141  -0.0007903707  0.002949  0.002949  0.015937  0.000991
               *** Restarting incremental Fock matrix formation ***
  2   -155.23328928  -0.0018078617  0.002811  0.012366  0.016154  0.000750
  3   -155.23325063   0.0000386436  0.003491  0.008771  0.007787  0.000431
  4   -155.23365858  -0.0004079425  0.000416  0.002347  0.002877  0.000126
  5   -155.23363780   0.0000207727  0.001320  0.002011  0.002022  0.000084
  6   -155.23366329  -0.0000254914  0.000317  0.001902  0.001895  0.000083
  7   -155.23365306   0.0000102326  0.001006  0.002331  0.001734  0.000061
  8   -155.23366508  -0.0000120233  0.000245  0.001353  0.001189  0.000053
  9   -155.23366378   0.0000013004  0.000299  0.000534  0.000728  0.000030
 10   -155.23366608  -0.0000022993  0.000071  0.000301  0.000516  0.000017
 11   -155.23366596   0.0000001264  0.000087  0.000204  0.000316  0.000011
                  ***Gradient check signals convergence***
              ***Rediagonalizing the Fockian in SOSCF/NRSCF***

               *****************************************************
               *                     SUCCESS                       *
               *           SCF CONVERGED AFTER  12 CYCLES          *
               *****************************************************

Old exchange energy                            =     -4.325268674 Eh
New exchange energy                            =     -4.325270558 Eh
Exchange energy change after final integration =     -0.000001884 Eh
Total energy after final integration           =   -155.233668079 Eh
Final COS-X integration done in                =     1.255 sec
Total Energy       :         -155.23366808 Eh           -4224.12286 eV
  Last Energy change         ...   -2.3769e-07  Tolerance :   1.0000e-08
  Last MAX-Density change    ...    1.7764e-15  Tolerance :   1.0000e-07
             **** THE GBW FILE WAS UPDATED (C4H6_3d.gbw) ****
             **** DENSITY C4H6_3d.scfp WAS UPDATED ****
             **** ENERGY FILE WAS UPDATED (C4H6_3d.en.tmp) ****
             **** THE GBW FILE WAS UPDATED (C4H6_3d.gbw) ****
             **** DENSITY C4H6_3d.scfp WAS UPDATED ****
Total SCF time: 0 days 0 hours 0 min 11 sec 

Maximum memory used throughout the entire SCF-calculation: 51.0 MB

-------------------------   --------------------
FINAL SINGLE POINT ENERGY      -155.233668079033
-------------------------   --------------------

------------------------------------------------------------------------------
                         ORCA SCF GRADIENT CALCULATION
------------------------------------------------------------------------------

 ... reading COSX grid (gridx3)
Gradient of the Kohn-Sham DFT energy:
Kohn-Sham wavefunction type      ... RKS
Hartree-Fock exchange scaling    ...    0.200
Number of operators              ...    1
Number of atoms                  ...   10
Basis set dimensions             ...   86
Integral neglect threshold       ... 2.5e-11
Integral primitive cutoff        ... 2.5e-12
SHARK Integral package           ... ON

Nuc. rep. gradient       (SHARK) ... done (  0.0 sec)
HCore & Overlap gradient (SHARK) ... done (  0.0 sec)
RI-J gradient            (SHARK) ... done (  0.2 sec)
COSX-gradient                    ... done (  1.5 sec)
Exchange-correlation gradient    ... done

------------------
CARTESIAN GRADIENT
------------------

   1   C   :   -0.027593044   -0.031228988    0.042721960
   2   C   :   -0.071105937    0.061970345   -0.024433528
   3   C   :    0.012286098    0.003838677    0.017101944
   4   C   :    0.016441649   -0.018828274   -0.047856106
   5   H   :    0.063208261    0.006317737   -0.058696236
   6   H   :    0.079390754    0.025126726    0.007584598
   7   H   :   -0.059984157   -0.035433462   -0.060420146
   8   H   :   -0.052757429   -0.057260213   -0.034038829
   9   H   :    0.039525675    0.026111830    0.082609668
  10   H   :    0.000597108    0.019374367    0.075463980

Difference to translation invariance:
           :    0.0000089780   -0.0000112546    0.0000373055

Difference to rotation invariance:
           :    0.0000396530    0.0000157299    0.0000544908

Norm of the cartesian gradient     ...    0.2485246961
RMS gradient                       ...    0.0453741940
MAX gradient                       ...    0.0826096677

-------
TIMINGS
-------

Total SCF gradient time            ...        2.736 sec

One electron gradient       ....       0.029 sec  (  1.1%)
RI-J Coulomb gradient       ....       0.173 sec  (  6.3%)
COSX gradient               ....       1.466 sec  ( 53.6%)
XC gradient                 ....       0.950 sec  ( 34.7%)

Maximum memory used throughout the entire SCFGRAD-calculation: 39.8 MB
------------------------------------------------------------------------------
                         ORCA GEOMETRY RELAXATION STEP
------------------------------------------------------------------------------

Reading the OPT-File                    .... done
Getting information on internals        .... done
Copying old internal coords+grads       .... done
Making the new internal coordinates     .... (new redundants).... done
Validating the new internal coordinates .... (new redundants).... done
Calculating the B-matrix                .... done
Calculating the G,G- and P matrices     .... done
Transforming gradient to internals      .... done
Projecting the internal gradient        .... done
Number of atoms                         ....  10
Number of internal coordinates          ....  38
Current Energy                          ....  -155.233668079 Eh
Current gradient norm                   ....     0.248524696 Eh/bohr
Maximum allowed component of the step   ....  0.300
Current trust radius                    ....  0.300
Updating the Hessian (BFGS)             .... done
Forming the augmented Hessian           .... done
Diagonalizing the augmented Hessian     .... done
Last element of RFO vector              ....  0.709238035
Lowest eigenvalues of augmented Hessian:
 -0.315864807  0.001887782  0.002676914  0.004157009  0.004330810
Length of the computed step             ....  0.993980933
Warning: the length of the step is outside the trust region - taking restricted step instead
The input lambda is                     ....    -0.315865
   iter:   1  x=   -0.460816  g=    6.195189 f(x)=     0.897998
   iter:   2  x=   -0.648271  g=    2.012337 f(x)=     0.377223
   iter:   3  x=   -0.850694  g=    0.727202 f(x)=     0.147203
   iter:   4  x=   -0.999822  g=    0.323118 f(x)=     0.048186
   iter:   5  x=   -1.050991  g=    0.199454 f(x)=     0.010206
   iter:   6  x=   -1.055241  g=    0.171825 f(x)=     0.000730
   iter:   7  x=   -1.055267  g=    0.169766 f(x)=     0.000004
   iter:   8  x=   -1.055267  g=    0.169753 f(x)=     0.000000
   iter:   9  x=   -1.055267  g=    0.169753 f(x)=     0.000000
The output lambda is                    ....    -1.055267 (9 iterations)
The final length of the internal step   ....  0.300000000
Converting the step to cartesian space:
 Initial RMS(Int)=    0.0486664263
Transforming coordinates:
 Iter   0:  RMS(Cart)=    0.0993305795 RMS(Int)=    0.0486249023
 Iter   1:  RMS(Cart)=    0.0007258572 RMS(Int)=    0.0004831904
 Iter   2:  RMS(Cart)=    0.0000229999 RMS(Int)=    0.0000170937
 Iter   3:  RMS(Cart)=    0.0000005833 RMS(Int)=    0.0000004480
 Iter   4:  RMS(Cart)=    0.0000000247 RMS(Int)=    0.0000000208
done
Storing new coordinates                 .... done

                                .--------------------.
          ----------------------|Geometry convergence|-------------------------
          Item                value                   Tolerance       Converged
          ---------------------------------------------------------------------
          Energy change      -0.0963346731            0.0000050000      NO
          RMS gradient        0.0516919785            0.0001000000      NO
          MAX gradient        0.1624435525            0.0003000000      NO
          RMS step            0.0486664263            0.0020000000      NO
          MAX step            0.1481117593            0.0040000000      NO
          ........................................................
          Max(Bonds)      0.0784      Max(Angles)    2.53
          Max(Dihed)        0.60      Max(Improp)    0.00
          ---------------------------------------------------------------------

The optimization has not yet converged - more geometry cycles are needed


    ---------------------------------------------------------------------------
                         Redundant Internal Coordinates
                            (Angstroem and degrees)

        Definition                    Value    dE/dq     Step     New-Value
    ----------------------------------------------------------------------------
     1. B(C   1,C   0)                1.7332  0.089863 -0.0438    1.6893   
     2. B(C   2,C   0)                1.5944  0.162444 -0.0784    1.5160   
     3. B(C   3,C   1)                1.8724  0.125836 -0.0667    1.8057   
     4. B(H   4,C   2)                1.3452  0.081881 -0.0401    1.3051   
     5. B(H   5,C   2)                1.3005  0.077367 -0.0373    1.2632   
     6. B(H   6,C   0)                1.4497  0.091738 -0.0458    1.4039   
[...]

GRIDX 2
-------
General Integration Accuracy     IntAcc      ... 4.020
Radial Grid Type                 RadialGrid  ... OptM3 with GC (2021)
Angular Grid (max. ang.)         AngularGrid ... 2 (Lebedev-110)
Angular grid pruning method      GridPruning ... 4 (adaptive)
Weight generation scheme         WeightScheme... Becke
Basis function cutoff            BFCut       ... 1.0000e-11
Integration weight cutoff        WCut        ... 1.0000e-14
Angular grids for H and He will be reduced by one unit
Partially contracted basis set               ... on
Rotationally invariant grid construction     ... off

Total number of grid points                  ...    12054
Total number of batches                      ...      193
Average number of points per batch           ...       62
Average number of grid points per atom       ...     1205
UseSFitting                                  ... on

GRIDX 3
-------
General Integration Accuracy     IntAcc      ... 4.338
Radial Grid Type                 RadialGrid  ... OptM3 with GC (2021)
Angular Grid (max. ang.)         AngularGrid ... 3 (Lebedev-194)
Angular grid pruning method      GridPruning ... 4 (adaptive)
Weight generation scheme         WeightScheme... Becke
Basis function cutoff            BFCut       ... 1.0000e-11
Integration weight cutoff        WCut        ... 1.0000e-14
Angular grids for H and He will be reduced by one unit
Partially contracted basis set               ... on
Rotationally invariant grid construction     ... off

Total number of grid points                  ...    26499
Total number of batches                      ...      420
Average number of points per batch           ...       63
Average number of grid points per atom       ...     2650
UseSFitting                                  ... on

Time for X-Grid setup             =    0.221 sec

--------------
SCF ITERATIONS
--------------
ITER       Energy         Delta-E        Max-DP      RMS-DP      [F,P]     Damp
               ***  Starting incremental Fock matrix formation  ***
                      *** Initiating the SOSCF procedure ***
                      *** Re-Reading the Fockian *** 
                      *** Removing any level shift *** 
ITER      Energy       Delta-E        Grad      Rot      Max-DP    RMS-DP
  0   -155.76636507 -155.7663650732  0.000066  0.000066  0.000201  0.000012
               *** Restarting incremental Fock matrix formation ***
  1   -155.76636541  -0.0000003415  0.000029  0.000087  0.000084  0.000005
  2   -155.76636545  -0.0000000364  0.000011  0.000042  0.000045  0.000003
  3   -155.76636545   0.0000000028  0.000020  0.000024  0.000025  0.000002
                  ***Gradient check signals convergence***
              ***Rediagonalizing the Fockian in SOSCF/NRSCF***

               *****************************************************
               *                     SUCCESS                       *
               *           SCF CONVERGED AFTER   4 CYCLES          *
               *****************************************************

Old exchange energy                            =     -4.547265028 Eh
New exchange energy                            =     -4.547272940 Eh
Exchange energy change after final integration =     -0.000007912 Eh
Total energy after final integration           =   -155.766373365 Eh
Final COS-X integration done in                =     1.331 sec

----------------
TOTAL SCF ENERGY
----------------

Total Energy       :         -155.76637337 Eh           -4238.61851 eV

Components:
Nuclear Repulsion  :          104.23632191 Eh            2836.41452 eV
Electronic Energy  :         -260.00269527 Eh           -7075.03303 eV
One Electron Energy:         -414.24143049 Eh          -11272.08239 eV
Two Electron Energy:          154.23873521 Eh            4197.04936 eV
Max COSX asymmetry :            0.00000116 Eh               0.00003 eV

Virial components:
Potential Energy   :         -309.66181760 Eh           -8426.32644 eV
Kinetic Energy     :          153.89544424 Eh            4187.70794 eV
Virial Ratio       :            2.01215714


DFT components:
N(Alpha)           :       15.000014863929 electrons
N(Beta)            :       15.000014863929 electrons
N(Total)           :       30.000029727857 electrons
E(X)               :      -18.035688459409 Eh       
E(C)               :       -1.134798688371 Eh       
E(XC)              :      -19.170487147779 Eh       
DFET-embed. en.    :        0.000000000000 Eh       

---------------
SCF CONVERGENCE
---------------

  Last Energy change         ...   -5.2524e-09  Tolerance :   1.0000e-08
  Last MAX-Density change    ...    2.6645e-15  Tolerance :   1.0000e-07
  Last RMS-Density change    ...    5.6214e-17  Tolerance :   5.0000e-09
  Last Orbital Gradient      ...    2.2702e-06  Tolerance :   1.0000e-05
  Last Orbital Rotation      ...    5.3633e-06  Tolerance :   1.0000e-05

             **** THE GBW FILE WAS UPDATED (C4H6_3d.gbw) ****
             **** DENSITY C4H6_3d.scfp WAS UPDATED ****
             **** ENERGY FILE WAS UPDATED (C4H6_3d.en.tmp) ****
             **** THE GBW FILE WAS UPDATED (C4H6_3d.gbw) ****
             **** DENSITY C4H6_3d.scfp WAS UPDATED ****
----------------
ORBITAL ENERGIES
----------------

  NO   OCC          E(Eh)            E(eV) 
   0   2.0000     -10.192248      -277.3452 
   1   2.0000     -10.192150      -277.3425 
   2   2.0000     -10.185394      -277.1587 
   3   2.0000     -10.185330      -277.1569 
   4   2.0000      -0.792584       -21.5673 
   5   2.0000      -0.717448       -19.5227 
   6   2.0000      -0.610009       -16.5992 
   7   2.0000      -0.520752       -14.1704 
   8   2.0000      -0.485985       -13.2243 
   9   2.0000      -0.436478       -11.8772 
  10   2.0000      -0.420093       -11.4313 
  11   2.0000      -0.364576        -9.9206 
  12   2.0000      -0.347301        -9.4506 
  13   2.0000      -0.313908        -8.5419 
  14   2.0000      -0.236173        -6.4266 
  15   0.0000      -0.033467        -0.9107 
  16   0.0000       0.066636         1.8133 
  17   0.0000       0.078937         2.1480 
  18   0.0000       0.089128         2.4253 
  19   0.0000       0.107896         2.9360 
  20   0.0000       0.144071         3.9204 
  21   0.0000       0.158376         4.3096 
  22   0.0000       0.165782         4.5112 
  23   0.0000       0.299488         8.1495 
  24   0.0000       0.303093         8.2476 
  25   0.0000       0.383057        10.4235 
  26   0.0000       0.385199        10.4818 
  27   0.0000       0.428397        11.6573 
  28   0.0000       0.436952        11.8901 
  29   0.0000       0.438677        11.9370 
  30   0.0000       0.484197        13.1757 
  31   0.0000       0.520288        14.1578 
  32   0.0000       0.533288        14.5115 
  33   0.0000       0.541086        14.7237 
  34   0.0000       0.584292        15.8994 
  35   0.0000       0.617323        16.7982 
  36   0.0000       0.649396        17.6710 
  37   0.0000       0.656181        17.8556 
  38   0.0000       0.667079        18.1521 
  39   0.0000       0.680239        18.5102 
  40   0.0000       0.681658        18.5489 
  41   0.0000       0.701326        19.0840 
  42   0.0000       0.739037        20.1102 
  43   0.0000       0.810060        22.0429 
  44   0.0000       0.837459        22.7884 
  45   0.0000       0.901136        24.5212 
  46   0.0000       1.100854        29.9558 
  47   0.0000       1.106113        30.0989 
  48   0.0000       1.207421        32.8556 
  49   0.0000       1.212754        33.0007 
  50   0.0000       1.261728        34.3334 
  51   0.0000       1.281451        34.8701 
  52   0.0000       1.396931        38.0124 
  53   0.0000       1.576838        42.9080 
  54   0.0000       1.611917        43.8625 
  55   0.0000       1.635856        44.5139 
  56   0.0000       1.661814        45.2202 
  57   0.0000       1.683898        45.8212 
  58   0.0000       1.690263        45.9944 
  59   0.0000       1.760261        47.8992 
  60   0.0000       1.763136        47.9774 
  61   0.0000       1.777601        48.3710 
  62   0.0000       1.824619        49.6504 
  63   0.0000       1.876079        51.0507 
  64   0.0000       1.890494        51.4430 
  65   0.0000       1.974932        53.7406 
  66   0.0000       1.979082        53.8536 
  67   0.0000       2.030007        55.2393 
  68   0.0000       2.097950        57.0881 
  69   0.0000       2.135665        58.1144 
  70   0.0000       2.230382        60.6918 
  71   0.0000       2.261185        61.5300 
  72   0.0000       2.299626        62.5760 
  73   0.0000       2.371490        64.5315 
  74   0.0000       2.425043        65.9888 
  75   0.0000       2.426872        66.0385 
  76   0.0000       2.554132        69.5015 
  77   0.0000       2.583462        70.2996 
  78   0.0000       2.713674        73.8428 
  79   0.0000       2.734704        74.4151 
  80   0.0000       2.775420        75.5230 
  81   0.0000       2.870225        78.1028 
  82   0.0000       2.923315        79.5474 
  83   0.0000       3.117787        84.8393 
  84   0.0000       3.130037        85.1726 
  85   0.0000       3.425568        93.2144 

                    ********************************
                    * MULLIKEN POPULATION ANALYSIS *
                    ********************************

-----------------------
MULLIKEN ATOMIC CHARGES
-----------------------
   0 C :   -0.017375
   1 C :   -0.017415
   2 C :   -0.025566
   3 C :   -0.025301
   4 H :    0.023730
   5 H :    0.019245
   6 H :   -0.000035
   7 H :   -0.000152
   8 H :    0.019172
   9 H :    0.023697
Sum of atomic charges:    0.0000000

--------------------------------
MULLIKEN REDUCED ORBITAL CHARGES
--------------------------------
  0 C s       :     3.123752  s :     3.123752
      pz      :     0.946772  p :     2.858400
      px      :     0.952209
      py      :     0.959418
      dz2     :     0.005833  d :     0.035223
      dxz     :     0.011101
      dyz     :     0.005328
      dx2y2   :     0.006224
      dxy     :     0.006737
  1 C s       :     3.123725  s :     3.123725
      pz      :     0.953264  p :     2.858462
      px      :     0.926165
      py      :     0.979033
      dz2     :     0.011077  d :     0.035227
      dxz     :     0.010089
      dyz     :     0.007128
      dx2y2   :     0.004726
      dxy     :     0.002207
  2 C s       :     3.112971  s :     3.112971
      pz      :     0.935486  p :     2.886270
      px      :     0.972561
      py      :     0.978222
      dz2     :     0.003653  d :     0.026326
      dxz     :     0.008570
      dyz     :     0.003000
      dx2y2   :     0.004990
      dxy     :     0.006113
  3 C s       :     3.112723  s :     3.112723
      pz      :     0.979870  p :     2.886248
      px      :     0.920571
      py      :     0.985807
      dz2     :     0.007605  d :     0.026329
      dxz     :     0.009454
      dyz     :     0.004547
      dx2y2   :     0.003502
      dxy     :     0.001222
  4 H s       :     0.952790  s :     0.952790
      pz      :     0.011509  p :     0.023480
      px      :     0.006622
      py      :     0.005350
  5 H s       :     0.957370  s :     0.957370
      pz      :     0.008598  p :     0.023385
      px      :     0.006349
      py      :     0.008439
  6 H s       :     0.977454  s :     0.977454
      pz      :     0.008997  p :     0.022581
      px      :     0.005645
      py      :     0.007938
  7 H s       :     0.977559  s :     0.977559
      pz      :     0.003795  p :     0.022594
      px      :     0.014404
      py      :     0.004395
  8 H s       :     0.957451  s :     0.957451
      pz      :     0.004569  p :     0.023377
      px      :     0.014228
      py      :     0.004580
  9 H s       :     0.952803  s :     0.952803
      pz      :     0.010005  p :     0.023500
      px      :     0.008246
      py      :     0.005249


                     *******************************
                     * LOEWDIN POPULATION ANALYSIS *
                     *******************************

----------------------
LOEWDIN ATOMIC CHARGES
----------------------
   0 C :   -0.034450
   1 C :   -0.034421
   2 C :   -0.040967
   3 C :   -0.040960
   4 H :    0.025433
   5 H :    0.022057
   6 H :    0.027950
   7 H :    0.027907
   8 H :    0.022083
   9 H :    0.025368

-------------------------------
LOEWDIN REDUCED ORBITAL CHARGES
-------------------------------
  0 C s       :     2.873739  s :     2.873739
      pz      :     1.015150  p :     3.070671
      px      :     1.065331
      py      :     0.990189
      dz2     :     0.014846  d :     0.090040
      dxz     :     0.030040
      dyz     :     0.012613
      dx2y2   :     0.015614
      dxy     :     0.016928
  1 C s       :     2.873675  s :     2.873675
      pz      :     1.070197  p :     3.070687
      px      :     1.038862
      py      :     0.961628
      dz2     :     0.029909  d :     0.090059
      dxz     :     0.028291
      dyz     :     0.015660
      dx2y2   :     0.011450
      dxy     :     0.004750
  2 C s       :     2.887915  s :     2.887915
      pz      :     1.024251  p :     3.084873
      px      :     1.052058
      py      :     1.008565
      dz2     :     0.010020  d :     0.068179
      dxz     :     0.022862
      dyz     :     0.007436
      dx2y2   :     0.012665
      dxy     :     0.015196
  3 C s       :     2.887838  s :     2.887838
      pz      :     1.062328  p :     3.084929
      px      :     1.046040
      py      :     0.976561
      dz2     :     0.020872  d :     0.068193
      dxz     :     0.025954
      dyz     :     0.009734
      dx2y2   :     0.008802
      dxy     :     0.002831
  4 H s       :     0.907196  s :     0.907196
      pz      :     0.033465  p :     0.067372
      px      :     0.017862
      py      :     0.016044
  5 H s       :     0.910313  s :     0.910313
      pz      :     0.025614  p :     0.067630
      px      :     0.017294
      py      :     0.024722
  6 H s       :     0.906792  s :     0.906792
      pz      :     0.026568  p :     0.065258
      px      :     0.015950
      py      :     0.022739
  7 H s       :     0.906796  s :     0.906796
      pz      :     0.011203  p :     0.065296
      px      :     0.040806
      py      :     0.013287
  8 H s       :     0.910328  s :     0.910328
      pz      :     0.011963  p :     0.067589
      px      :     0.041534
      py      :     0.014092
  9 H s       :     0.907183  s :     0.907183
      pz      :     0.027660  p :     0.067449
      px      :     0.023941
      py      :     0.015848


                      *****************************
                      * MAYER POPULATION ANALYSIS *
                      *****************************

  NA   - Mulliken gross atomic population
  ZA   - Total nuclear charge
  QA   - Mulliken gross atomic charge
  VA   - Mayer's total valence
  BVA  - Mayer's bonded valence
  FA   - Mayer's free valence

  ATOM       NA         ZA         QA         VA         BVA        FA
  0 C      6.0174     6.0000    -0.0174     4.0292     4.0292    -0.0000
  1 C      6.0174     6.0000    -0.0174     4.0295     4.0295    -0.0000
  2 C      6.0256     6.0000    -0.0256     3.9510     3.9510     0.0000
  3 C      6.0253     6.0000    -0.0253     3.9510     3.9510    -0.0000
  4 H      0.9763     1.0000     0.0237     0.9745     0.9745    -0.0000
  5 H      0.9808     1.0000     0.0192     0.9853     0.9853     0.0000
  6 H      1.0000     1.0000    -0.0000     0.9768     0.9768     0.0000
  7 H      1.0002     1.0000    -0.0002     0.9768     0.9768    -0.0000
  8 H      0.9808     1.0000     0.0192     0.9853     0.9853     0.0000
  9 H      0.9763     1.0000     0.0237     0.9745     0.9745    -0.0000

  Mayer bond orders larger than 0.100000
B(  0-C ,  1-C ) :   1.0830 B(  0-C ,  2-C ) :   1.9612 B(  0-C ,  6-H ) :   0.9546 
B(  1-C ,  3-C ) :   1.9613 B(  1-C ,  7-H ) :   0.9546 B(  2-C ,  4-H ) :   0.9487 
B(  2-C ,  5-H ) :   0.9526 B(  3-C ,  8-H ) :   0.9525 B(  3-C ,  9-H ) :   0.9487 


-------
TIMINGS
-------

Total SCF time: 0 days 0 hours 0 min 5 sec 

Total time                  ....       5.851 sec
Sum of individual times     ....       5.716 sec  ( 97.7%)

Fock matrix formation       ....       5.259 sec  ( 89.9%)
  Split-RI-J                ....       0.289 sec  (  5.5% of F)
  Chain of spheres X        ....       4.122 sec  ( 78.4% of F)
  XC integration            ....       0.854 sec  ( 16.2% of F)
    Basis function eval.    ....       0.340 sec  ( 39.8% of XC)
    Density eval.           ....       0.201 sec  ( 23.6% of XC)
    XC-Functional eval.     ....       0.084 sec  (  9.8% of XC)
    XC-Potential eval.      ....       0.177 sec  ( 20.7% of XC)
Diagonalization             ....       0.001 sec  (  0.0%)
Density matrix formation    ....       0.000 sec  (  0.0%)
Population analysis         ....       0.006 sec  (  0.1%)
Initial guess               ....       0.002 sec  (  0.0%)
Orbital Transformation      ....       0.000 sec  (  0.0%)
Orbital Orthonormalization  ....       0.001 sec  (  0.0%)
DIIS solution               ....       0.000 sec  (  0.0%)
SOSCF solution              ....       0.006 sec  (  0.1%)
Grid generation             ....       0.442 sec  (  7.6%)

Maximum memory used throughout the entire SCF-calculation: 51.5 MB

-------------------------   --------------------
FINAL SINGLE POINT ENERGY      -155.766373365351
-------------------------   --------------------

                                *** OPTIMIZATION RUN DONE ***

                            ***************************************
                            *     ORCA property calculations      *
                            ***************************************

                                    ---------------------
                                    Active property flags
                                    ---------------------
   (+) Dipole Moment


------------------------------------------------------------------------------
                       ORCA ELECTRIC PROPERTIES CALCULATION
------------------------------------------------------------------------------

Dipole Moment Calculation                       ... on
Quadrupole Moment Calculation                   ... off
Polarizability Calculation                      ... off
GBWName                                         ... C4H6_3d.gbw
Electron density                                ... C4H6_3d.scfp
The origin for moment calculation is the CENTER OF MASS  = (-1.600466, -0.761804 -1.287182)

-------------
DIPOLE MOMENT
-------------
                                X             Y             Z
Electronic contribution:     -0.63270      -0.28118      -0.36361
Nuclear contribution   :      0.60213       0.26815       0.34587
                        -----------------------------------------
Total Dipole Moment    :     -0.03057      -0.01302      -0.01774
                        -----------------------------------------
Magnitude (a.u.)       :      0.03766
Magnitude (Debye)      :      0.09573



--------------------
Rotational spectrum 
--------------------
 
Rotational constants in cm-1:     0.715021     0.185477     0.149445 
Rotational constants in MHz : 21435.786273  5560.464050  4480.234102 

 Dipole components along the rotational axes: 
x,y,z [a.u.] :    -0.000059     0.037659    -0.000518 
x,y,z [Debye]:    -0.000151     0.095723    -0.001316 

 

Timings for individual modules:

Sum of individual times         ...      427.316 sec (=   7.122 min)
GTO integral calculation        ...        3.332 sec (=   0.056 min)   0.8 %
SCF iterations                  ...      329.302 sec (=   5.488 min)  77.1 %
SCF Gradient evaluation         ...       94.252 sec (=   1.571 min)  22.1 %
Geometry relaxation             ...        0.429 sec (=   0.007 min)   0.1 %
                             ****ORCA TERMINATED NORMALLY****
TOTAL RUN TIME: 0 days 0 hours 7 minutes 7 seconds 902 msec
