
                                 *****************
                                 * O   R   C   A *
                                 *****************

                                            #,                                       
                                            ###                                      
                                            ####                                     
                                            #####                                    
                                            ######                                   
                                           ########,                                 
                                     ,,################,,,,,                         
                               ,,#################################,,                 
                          ,,##########################################,,             
                       ,#########################################, ''#####,          
                    ,#############################################,,   '####,        
                  ,##################################################,,,,####,       
                ,###########''''           ''''###############################       
              ,#####''   ,,,,##########,,,,          '''####'''          '####       
            ,##' ,,,,###########################,,,                        '##       
           ' ,,###''''                  '''############,,,                           
         ,,##''                                '''############,,,,        ,,,,,,###''
      ,#''                                            '''#######################'''  
     '                                                          ''''####''''         
             ,#######,   #######,   ,#######,      ##                                
            ,#'     '#,  ##    ##  ,#'     '#,    #''#        ######   ,####,        
            ##       ##  ##   ,#'  ##            #'  '#       #        #'  '#        
            ##       ##  #######   ##           ,######,      #####,   #    #        
            '#,     ,#'  ##    ##  '#,     ,#' ,#      #,         ##   #,  ,#        
             '#######'   ##     ##  '#######'  #'      '#     #####' # '####'        



                  #######################################################
                  #                        -***-                        #
                  #          Department of theory and spectroscopy      #
                  #    Directorship and core code : Frank Neese         #
                  #        Max Planck Institute fuer Kohlenforschung    #
                  #                Kaiser Wilhelm Platz 1               #
                  #                 D-45470 Muelheim/Ruhr               #
                  #                      Germany                        #
                  #                                                     #
                  #                  All rights reserved                #
                  #                        -***-                        #
                  #######################################################


                         Program Version 5.0.4 -  RELEASE  -


 With contributions from (in alphabetic order):
   Daniel Aravena         : Magnetic Suceptibility
   Michael Atanasov       : Ab Initio Ligand Field Theory (pilot matlab implementation)
   Alexander A. Auer      : GIAO ZORA, VPT2 properties, NMR spectrum
   Ute Becker             : Parallelization
   Giovanni Bistoni       : ED, misc. LED, open-shell LED, HFLD
   Martin Brehm           : Molecular dynamics
   Dmytro Bykov           : SCF Hessian
   Vijay G. Chilkuri      : MRCI spin determinant printing, contributions to CSF-ICE
   Dipayan Datta          : RHF DLPNO-CCSD density
   Achintya Kumar Dutta   : EOM-CC, STEOM-CC
   Dmitry Ganyushin       : Spin-Orbit,Spin-Spin,Magnetic field MRCI
   Miquel Garcia          : C-PCM and meta-GGA Hessian, CC/C-PCM, Gaussian charge scheme
   Yang Guo               : DLPNO-NEVPT2, F12-NEVPT2, CIM, IAO-localization
   Andreas Hansen         : Spin unrestricted coupled pair/coupled cluster methods
   Benjamin Helmich-Paris : MC-RPA, TRAH-SCF, COSX integrals
   Lee Huntington         : MR-EOM, pCC
   Robert Izsak           : Overlap fitted RIJCOSX, COSX-SCS-MP3, EOM
   Marcus Kettner         : VPT2
   Christian Kollmar      : KDIIS, OOCD, Brueckner-CCSD(T), CCSD density, CASPT2, CASPT2-K
   Simone Kossmann        : Meta GGA functionals, TD-DFT gradient, OOMP2, MP2 Hessian
   Martin Krupicka        : Initial AUTO-CI
   Lucas Lang             : DCDCAS
   Marvin Lechner         : AUTO-CI (C++ implementation), FIC-MRCC
   Dagmar Lenk            : GEPOL surface, SMD
   Dimitrios Liakos       : Extrapolation schemes; Compound Job, initial MDCI parallelization
   Dimitrios Manganas     : Further ROCIS development; embedding schemes
   Dimitrios Pantazis     : SARC Basis sets
   Anastasios Papadopoulos: AUTO-CI, single reference methods and gradients
   Taras Petrenko         : DFT Hessian,TD-DFT gradient, ASA, ECA, R-Raman, ABS, FL, XAS/XES, NRVS
   Peter Pinski           : DLPNO-MP2, DLPNO-MP2 Gradient
   Christoph Reimann      : Effective Core Potentials
   Marius Retegan         : Local ZFS, SOC
   Christoph Riplinger    : Optimizer, TS searches, QM/MM, DLPNO-CCSD(T), (RO)-DLPNO pert. Triples
   Tobias Risthaus        : Range-separated hybrids, TD-DFT gradient, RPA, STAB
   Michael Roemelt        : Original ROCIS implementation
   Masaaki Saitow         : Open-shell DLPNO-CCSD energy and density
   Barbara Sandhoefer     : DKH picture change effects
   Avijit Sen             : IP-ROCIS
   Kantharuban Sivalingam : CASSCF convergence, NEVPT2, FIC-MRCI
   Bernardo de Souza      : ESD, SOC TD-DFT
   Georgi Stoychev        : AutoAux, RI-MP2 NMR, DLPNO-MP2 response
   Willem Van den Heuvel  : Paramagnetic NMR
   Boris Wezisla          : Elementary symmetry handling
   Frank Wennmohs         : Technical directorship


 We gratefully acknowledge several colleagues who have allowed us to
 interface, adapt or use parts of their codes:
   Stefan Grimme, W. Hujo, H. Kruse, P. Pracht,  : VdW corrections, initial TS optimization,
                  C. Bannwarth, S. Ehlert          DFT functionals, gCP, sTDA/sTD-DF
   Ed Valeev, F. Pavosevic, A. Kumar             : LibInt (2-el integral package), F12 methods
   Garnet Chan, S. Sharma, J. Yang, R. Olivares  : DMRG
   Ulf Ekstrom                                   : XCFun DFT Library
   Mihaly Kallay                                 : mrcc  (arbitrary order and MRCC methods)
   Jiri Pittner, Ondrej Demel                    : Mk-CCSD
   Frank Weinhold                                : gennbo (NPA and NBO analysis)
   Christopher J. Cramer and Donald G. Truhlar   : smd solvation model
   Lars Goerigk                                  : TD-DFT with DH, B97 family of functionals
   V. Asgeirsson, H. Jonsson                     : NEB implementation
   FAccTs GmbH                                   : IRC, NEB, NEB-TS, DLPNO-Multilevel, CI-OPT
                                                   MM, QMMM, 2- and 3-layer-ONIOM, Crystal-QMMM,
                                                   LR-CPCM, SF, NACMEs, symmetry and pop. for TD-DFT,
                                                   nearIR, NL-DFT gradient (VV10), updates on ESD,
                                                   ML-optimized integration grids
   S Lehtola, MJT Oliveira, MAL Marques          : LibXC Library
   Liviu Ungur et al                             : ANISO software


 Your calculation uses the libint2 library for the computation of 2-el integrals
 For citations please refer to: http://libint.valeyev.net

 Your ORCA version has been built with support for libXC version: 5.1.0
 For citations please refer to: https://tddft.org/programs/libxc/

 This ORCA versions uses:
   CBLAS   interface :  Fast vector & matrix operations
   LAPACKE interface :  Fast linear algebra routines
   SCALAPACK package :  Parallel linear algebra routines
   Shared memory     :  Shared parallel matrices
   BLAS/LAPACK       :  OpenBLAS 0.3.15  USE64BITINT DYNAMIC_ARCH NO_AFFINITY Haswell SINGLE_THREADED
        Core in use  :  Haswell
   Copyright (c) 2011-2014, The OpenBLAS Project


================================================================================

----- Orbital basis set information -----
Your calculation utilizes the basis: def2-SVP
   F. Weigend and R. Ahlrichs, Phys. Chem. Chem. Phys. 7, 3297 (2005).

----- AuxJ basis set information -----
Your calculation utilizes the auxiliary basis: def2/J
   F. Weigend, Phys. Chem. Chem. Phys. 8, 1057 (2006).

================================================================================
                                        WARNINGS
                       Please study these warnings very carefully!
================================================================================


INFO   : the flag for use of the SHARK integral package has been found!

================================================================================
                                       INPUT FILE
================================================================================
NAME = C4H6_3d_freq.inp
|  1> !B3LYP DEF2-SVP Freq
|  2> * xyz 0 1   
|  3> C       -0.877758000     -0.745566000     -1.528263000
|  4> C       -1.693562000     -0.449057000     -0.339976000
|  5> C        0.366164000     -0.303588000     -1.770356000
|  6> C       -1.235996000     -0.137588000      0.882696000
|  7> H        0.902742000     -0.592336000     -2.678104000
|  8> H        0.885077000      0.369701000     -1.080474000
|  9> H       -1.360979000     -1.376860000     -2.284822000
| 10> H       -2.779327000     -0.512909000     -0.487493000
| 11> H       -0.165386000     -0.106731000      1.108760000
| 12> H       -1.922331000      0.085479000      1.704285000
| 13> **                         ****END OF INPUT****
================================================================================

                       ****************************
                       * Single Point Calculation *
                       ****************************

---------------------------------
CARTESIAN COORDINATES (ANGSTROEM)
---------------------------------
  C     -0.877758   -0.745566   -1.528263
  C     -1.693562   -0.449057   -0.339976
  C      0.366164   -0.303588   -1.770356
  C     -1.235996   -0.137588    0.882696
  H      0.902742   -0.592336   -2.678104
  H      0.885077    0.369701   -1.080474
  H     -1.360979   -1.376860   -2.284822
  H     -2.779327   -0.512909   -0.487493
  H     -0.165386   -0.106731    1.108760
  H     -1.922331    0.085479    1.704285

----------------------------
CARTESIAN COORDINATES (A.U.)
----------------------------
  NO LB      ZA    FRAG     MASS         X           Y           Z
   0 C     6.0000    0    12.011   -1.658722   -1.408916   -2.887999
   1 C     6.0000    0    12.011   -3.200368   -0.848595   -0.642462
   2 C     6.0000    0    12.011    0.691950   -0.573698   -3.345488
   3 C     6.0000    0    12.011   -2.335694   -0.260004    1.668054
   4 H     1.0000    0     1.008    1.705935   -1.119353   -5.060883
   5 H     1.0000    0     1.008    1.672553    0.698634   -2.041800
   6 H     1.0000    0     1.008   -2.571878   -2.601888   -4.317688
   7 H     1.0000    0     1.008   -5.252167   -0.969258   -0.921228
   8 H     1.0000    0     1.008   -0.312534   -0.201692    2.095253
   9 H     1.0000    0     1.008   -3.632679    0.161532    3.220632

--------------------------------
INTERNAL COORDINATES (ANGSTROEM)
--------------------------------
 C      0   0   0     0.000000000000     0.00000000     0.00000000
 C      1   0   0     1.471556912887     0.00000000     0.00000000
 C      1   2   0     1.342123509673   126.37885129     0.00000000
 C      2   1   3     1.342127565435   126.39790903   333.51403888
 H      3   1   2     1.093296752530   121.17621822   178.92156423
 H      3   1   2     1.094772100948   121.88190172   358.09041132
 H      1   2   3     1.097458960398   115.37098592   181.15744591
 H      2   1   3     1.097599188419   115.35048750   154.70150212
 H      4   2   1     1.094651934930   121.87823102   358.11244369
 H      4   2   1     1.093536969487   121.18530851   178.89197313

---------------------------
INTERNAL COORDINATES (A.U.)
---------------------------
 C      0   0   0     0.000000000000     0.00000000     0.00000000
 C      1   0   0     2.780839555835     0.00000000     0.00000000
 C      1   2   0     2.536245871179   126.37885129     0.00000000
 C      2   1   3     2.536253535459   126.39790903   333.51403888
 H      3   1   2     2.066031445387   121.17621822   178.92156423
 H      3   1   2     2.068819449849   121.88190172   358.09041132
 H      1   2   3     2.073896878370   115.37098592   181.15744591
 H      2   1   3     2.074161870926   115.35048750   154.70150212
 H      4   2   1     2.068592368984   121.87823102   358.11244369
 H      4   2   1     2.066485389649   121.18530851   178.89197313

---------------------
BASIS SET INFORMATION
---------------------
There are 2 groups of distinct atoms

 Group   1 Type C   : 7s4p1d contracted to 3s2p1d pattern {511/31/1}
 Group   2 Type H   : 4s1p contracted to 2s1p pattern {31/1}

Atom   0C    basis set group =>   1
Atom   1C    basis set group =>   1
Atom   2C    basis set group =>   1
Atom   3C    basis set group =>   1
Atom   4H    basis set group =>   2
Atom   5H    basis set group =>   2
Atom   6H    basis set group =>   2
Atom   7H    basis set group =>   2
Atom   8H    basis set group =>   2
Atom   9H    basis set group =>   2
---------------------------------
AUXILIARY/J BASIS SET INFORMATION
---------------------------------
There are 2 groups of distinct atoms

 Group   1 Type C   : 12s5p4d2f1g contracted to 6s4p3d1f1g pattern {711111/2111/211/2/1}
 Group   2 Type H   : 5s2p1d contracted to 3s1p1d pattern {311/2/1}

Atom   0C    basis set group =>   1
Atom   1C    basis set group =>   1
Atom   2C    basis set group =>   1
Atom   3C    basis set group =>   1
Atom   4H    basis set group =>   2
Atom   5H    basis set group =>   2
Atom   6H    basis set group =>   2
Atom   7H    basis set group =>   2
Atom   8H    basis set group =>   2
Atom   9H    basis set group =>   2
------------------------------------------------------------------------------
                           ORCA GTO INTEGRAL CALCULATION
                           -- RI-GTO INTEGRALS CHOSEN --
------------------------------------------------------------------------------
------------------------------------------------------------------------------
                   ___                                                        
                  /   \      - P O W E R E D   B Y -                         
                 /     \                                                     
                 |  |  |   _    _      __       _____    __    __             
                 |  |  |  | |  | |    /  \     |  _  \  |  |  /  |          
                  \  \/   | |  | |   /    \    | | | |  |  | /  /          
                 / \  \   | |__| |  /  /\  \   | |_| |  |  |/  /          
                |  |  |   |  __  | /  /__\  \  |    /   |      \           
                |  |  |   | |  | | |   __   |  |    \   |  |\   \          
                \     /   | |  | | |  |  |  |  | |\  \  |  | \   \       
                 \___/    |_|  |_| |__|  |__|  |_| \__\ |__|  \__/        
                                                                              
                      - O R C A' S   B I G   F R I E N D -                    
                                      &                                       
                       - I N T E G R A L  F E E D E R -                       
                                                                              
 v1 FN, 2020, v2 2021                                                         
------------------------------------------------------------------------------


Reading SHARK input file C4H6_3d_freq.SHARKINP.tmp ... ok
----------------------
SHARK INTEGRAL PACKAGE
----------------------

Number of atoms                             ...     10
Number of basis functions                   ...     86
Number of shells                            ...     42
Maximum angular momentum                    ...      2
Integral batch strategy                     ... SHARK/LIBINT Hybrid
RI-J (if used) integral strategy            ... SPLIT-RIJ (Revised 2003 algorithm where possible)
Printlevel                                  ...      1
Contraction scheme used                     ... SEGMENTED contraction
Coulomb Range Separation                    ... NOT USED
Exchange Range Separation                   ... NOT USED
Finite Nucleus Model                        ... NOT USED
Auxiliary Coulomb fitting basis             ... AVAILABLE
   # of basis functions in Aux-J            ...    262
   # of shells in Aux-J                     ...     90
   Maximum angular momentum in Aux-J        ...      4
Auxiliary J/K fitting basis                 ... NOT available
Auxiliary Correlation fitting basis         ... NOT available
Auxiliary 'external' fitting basis          ... NOT available
Integral threshold                          ...     1.000000e-10
Primitive cut-off                           ...     1.000000e-11
Primitive pair pre-selection threshold      ...     1.000000e-11

Calculating pre-screening integrals         ... done (  0.0 sec) Dimension = 42
Organizing shell pair data                  ... done (  0.0 sec)
Shell pair information
Total number of shell pairs                 ...       903
Shell pairs after pre-screening             ...       889
Total number of primitive shell pairs       ...      3151
Primitive shell pairs kept                  ...      2536
          la=0 lb=0:    295 shell pairs
          la=1 lb=0:    328 shell pairs
          la=1 lb=1:    104 shell pairs
          la=2 lb=0:     96 shell pairs
          la=2 lb=1:     56 shell pairs
          la=2 lb=2:     10 shell pairs

Calculating one electron integrals          ... done (  0.0 sec)
Calculating RI/J V-Matrix + Cholesky decomp.... done (  0.0 sec)
Calculating Nuclear repulsion               ... done (  0.0 sec) ENN=    104.235003336726 Eh

SHARK setup successfully completed in   0.1 seconds

Maximum memory used throughout the entire GTOINT-calculation: 9.6 MB
-------------------------------------------------------------------------------
                                 ORCA SCF
-------------------------------------------------------------------------------

------------
SCF SETTINGS
------------
Hamiltonian:
 Density Functional     Method          .... DFT(GTOs)
 Exchange Functional    Exchange        .... B88
   X-Alpha parameter    XAlpha          ....  0.666667
   Becke's b parameter  XBeta           ....  0.004200
 Correlation Functional Correlation     .... LYP
 LDA part of GGA corr.  LDAOpt          .... VWN-5
 Gradients option       PostSCFGGA      .... off
 Hybrid DFT is turned on
   Fraction HF Exchange ScalHFX         ....  0.200000
   Scaling of DF-GGA-X  ScalDFX         ....  0.720000
   Scaling of DF-GGA-C  ScalDFC         ....  0.810000
   Scaling of DF-LDA-C  ScalLDAC        ....  1.000000
   Perturbative correction              ....  0.000000
   Density functional embedding theory  .... OFF
   NL short-range parameter             ....  4.800000
 RI-approximation to the Coulomb term is turned on
   Number of AuxJ basis functions       .... 262
   RIJ-COSX (HFX calculated with COS-X)).... on


General Settings:
 Integral files         IntName         .... C4H6_3d_freq
 Hartree-Fock type      HFTyp           .... RHF
 Total Charge           Charge          ....    0
 Multiplicity           Mult            ....    1
 Number of Electrons    NEL             ....   30
 Basis Dimension        Dim             ....   86
 Nuclear Repulsion      ENuc            ....    104.2350033367 Eh

Convergence Acceleration:
 DIIS                   CNVDIIS         .... on
   Start iteration      DIISMaxIt       ....    12
   Startup error        DIISStart       ....  0.200000
   # of expansion vecs  DIISMaxEq       ....     5
   Bias factor          DIISBfac        ....   1.050
   Max. coefficient     DIISMaxC        ....  10.000
 Trust-Rad. Augm. Hess. CNVTRAH         .... auto
   Auto Start mean grad. ratio tolernc. ....  1.125000
   Auto Start start iteration           ....    20
   Auto Start num. interpolation iter.  ....    10
   Max. Number of Micro iterations      ....    16
   Max. Number of Macro iterations      .... Maxiter - #DIIS iter
   Number of Davidson start vectors     ....     2
   Converg. threshold I  (grad. norm)   ....   5.000e-05
   Converg. threshold II (energy diff.) ....   1.000e-06
   Grad. Scal. Fac. for Micro threshold ....   0.100
   Minimum threshold for Micro iter.    ....   0.010
   NR start threshold (gradient norm)   ....   0.001
   Initial trust radius                 ....   0.400
   Minimum AH scaling param. (alpha)    ....   1.000
   Maximum AH scaling param. (alpha)    .... 1000.000
   Orbital update algorithm             .... Taylor
   White noise on init. David. guess    .... on
   Maximum white noise                  ....   0.010
   Quad. conv. algorithm                .... NR
 SOSCF                  CNVSOSCF        .... on
   Start iteration      SOSCFMaxIt      ....   150
   Startup grad/error   SOSCFStart      ....  0.003300
 Level Shifting         CNVShift        .... on
   Level shift para.    LevelShift      ....    0.2500
   Turn off err/grad.   ShiftErr        ....    0.0010
 Zerner damping         CNVZerner       .... off
 Static damping         CNVDamp         .... on
   Fraction old density DampFac         ....    0.7000
   Max. Damping (<1)    DampMax         ....    0.9800
   Min. Damping (>=0)   DampMin         ....    0.0000
   Turn off err/grad.   DampErr         ....    0.1000
 Fernandez-Rico         CNVRico         .... off

SCF Procedure:
 Maximum # iterations   MaxIter         ....   125
 SCF integral mode      SCFMode         .... Direct
   Integral package                     .... SHARK and LIBINT hybrid scheme
 Reset frequency        DirectResetFreq ....    20
 Integral Threshold     Thresh          ....  1.000e-10 Eh
 Primitive CutOff       TCut            ....  1.000e-11 Eh

Convergence Tolerance:
 Convergence Check Mode ConvCheckMode   .... Total+1el-Energy
 Convergence forced     ConvForced      .... 0
 Energy Change          TolE            ....  1.000e-06 Eh
 1-El. energy change                    ....  1.000e-03 Eh
 Orbital Gradient       TolG            ....  5.000e-05
 Orbital Rotation angle TolX            ....  5.000e-05
 DIIS Error             TolErr          ....  1.000e-06


Diagonalization of the overlap matrix:
Smallest eigenvalue                        ... 1.803e-03
Time for diagonalization                   ...    0.001 sec
Threshold for overlap eigenvalues          ... 1.000e-08
Number of eigenvalues below threshold      ... 0
Time for construction of square roots      ...    0.000 sec
Total time needed                          ...    0.001 sec

Time for model grid setup =    0.044 sec

------------------------------
INITIAL GUESS: MODEL POTENTIAL
------------------------------
Loading Hartree-Fock densities                     ... done
Calculating cut-offs                               ... done
Initializing the effective Hamiltonian             ... done
Setting up the integral package (SHARK)            ... done
Starting the Coulomb interaction                   ... done (   0.0 sec)
Reading the grid                                   ... done
Mapping shells                                     ... done
Starting the XC term evaluation                    ... done (   0.0 sec)
  promolecular density results
     # of electrons  =     29.997167931
     EX              =    -22.271389578
     EC              =     -0.950909790
     EX+EC           =    -23.222299368
Transforming the Hamiltonian                       ... done (   0.0 sec)
Diagonalizing the Hamiltonian                      ... done (   0.0 sec)
Back transforming the eigenvectors                 ... done (   0.0 sec)
Now organizing SCF variables                       ... done
                      ------------------
                      INITIAL GUESS DONE (   0.1 sec)
                      ------------------
-------------------
DFT GRID GENERATION
-------------------

General Integration Accuracy     IntAcc      ... 4.388
Radial Grid Type                 RadialGrid  ... OptM3 with GC (2021)
Angular Grid (max. ang.)         AngularGrid ... 4 (Lebedev-302)
Angular grid pruning method      GridPruning ... 4 (adaptive)
Weight generation scheme         WeightScheme... Becke
Basis function cutoff            BFCut       ... 1.0000e-10
Integration weight cutoff        WCut        ... 1.0000e-14
Angular grids for H and He will be reduced by one unit
Partially contracted basis set               ... off
Rotationally invariant grid construction     ... off

Total number of grid points                  ...    43815
Total number of batches                      ...      691
Average number of points per batch           ...       63
Average number of grid points per atom       ...     4382
Time for grid setup =    0.201 sec

--------------------
COSX GRID GENERATION
--------------------

GRIDX 1
-------
General Integration Accuracy     IntAcc      ... 3.816
Radial Grid Type                 RadialGrid  ... OptM3 with GC (2021)
Angular Grid (max. ang.)         AngularGrid ... 1 (Lebedev-50)
Angular grid pruning method      GridPruning ... 4 (adaptive)
Weight generation scheme         WeightScheme... Becke
Basis function cutoff            BFCut       ... 1.0000e-10
Integration weight cutoff        WCut        ... 1.0000e-14
Angular grids for H and He will be reduced by one unit
Partially contracted basis set               ... on
Rotationally invariant grid construction     ... off

Total number of grid points                  ...     5649
Total number of batches                      ...       92
Average number of points per batch           ...       61
Average number of grid points per atom       ...      565
UseSFitting                                  ... on

GRIDX 2
-------
General Integration Accuracy     IntAcc      ... 4.020
Radial Grid Type                 RadialGrid  ... OptM3 with GC (2021)
Angular Grid (max. ang.)         AngularGrid ... 2 (Lebedev-110)
Angular grid pruning method      GridPruning ... 4 (adaptive)
Weight generation scheme         WeightScheme... Becke
Basis function cutoff            BFCut       ... 1.0000e-10
Integration weight cutoff        WCut        ... 1.0000e-14
Angular grids for H and He will be reduced by one unit
Partially contracted basis set               ... on
Rotationally invariant grid construction     ... off

Total number of grid points                  ...    12054
Total number of batches                      ...      194
Average number of points per batch           ...       62
Average number of grid points per atom       ...     1205
UseSFitting                                  ... on

GRIDX 3
-------
General Integration Accuracy     IntAcc      ... 4.338
Radial Grid Type                 RadialGrid  ... OptM3 with GC (2021)
Angular Grid (max. ang.)         AngularGrid ... 3 (Lebedev-194)
Angular grid pruning method      GridPruning ... 4 (adaptive)
Weight generation scheme         WeightScheme... Becke
Basis function cutoff            BFCut       ... 1.0000e-10
Integration weight cutoff        WCut        ... 1.0000e-14
Angular grids for H and He will be reduced by one unit
Partially contracted basis set               ... on
Rotationally invariant grid construction     ... off

Total number of grid points                  ...    26498
Total number of batches                      ...      420
Average number of points per batch           ...       63
Average number of grid points per atom       ...     2650
UseSFitting                                  ... on

Time for X-Grid setup             =    0.214 sec

--------------
SCF ITERATIONS
--------------
ITER       Energy         Delta-E        Max-DP      RMS-DP      [F,P]     Damp
               ***  Starting incremental Fock matrix formation  ***
  0   -155.6526137558   0.000000000000 0.06135184  0.00272266  0.1452866 0.7000
  1   -155.7035425081  -0.050928752350 0.04001096  0.00201564  0.0804343 0.7000
                               ***Turning on DIIS***
  2   -155.7262155305  -0.022673022405 0.06134875  0.00356767  0.0341970 0.0000
  3   -155.7569579900  -0.030742459516 0.02750137  0.00136080  0.0409297 0.0000
  4   -155.7658007015  -0.008842711483 0.00503858  0.00038655  0.0093030 0.0000
                      *** Initiating the SOSCF procedure ***
                           *** Shutting down DIIS ***
                      *** Re-Reading the Fockian *** 
                      *** Removing any level shift *** 
ITER      Energy       Delta-E        Grad      Rot      Max-DP    RMS-DP
  5   -155.76627597  -0.0004752646  0.000973  0.000973  0.001949  0.000137
               *** Restarting incremental Fock matrix formation ***
  6   -155.76636281  -0.0000868416  0.000403  0.000812  0.001180  0.000088
  7   -155.76636344  -0.0000006292  0.000302  0.000368  0.000650  0.000025
  8   -155.76636526  -0.0000018186  0.000120  0.000294  0.000345  0.000019
  9   -155.76636511   0.0000001426  0.000131  0.000149  0.000199  0.000010
                 **** Energy Check signals convergence ****
              ***Rediagonalizing the Fockian in SOSCF/NRSCF***

               *****************************************************
               *                     SUCCESS                       *
               *           SCF CONVERGED AFTER  10 CYCLES          *
               *****************************************************

Old exchange energy                            =     -4.547248374 Eh
New exchange energy                            =     -4.547256390 Eh
Exchange energy change after final integration =     -0.000008016 Eh
Total energy after final integration           =   -155.766373407 Eh
Final COS-X integration done in                =     1.660 sec

----------------
TOTAL SCF ENERGY
----------------

Total Energy       :         -155.76637341 Eh           -4238.61851 eV

Components:
Nuclear Repulsion  :          104.23500334 Eh            2836.37864 eV
Electronic Energy  :         -260.00137674 Eh           -7074.99715 eV
One Electron Energy:         -414.23898478 Eh          -11272.01583 eV
Two Electron Energy:          154.23760804 Eh            4197.01869 eV
Max COSX asymmetry :            0.00000116 Eh               0.00003 eV

Virial components:
Potential Energy   :         -309.66164134 Eh           -8426.32165 eV
Kinetic Energy     :          153.89526793 Eh            4187.70314 eV
Virial Ratio       :            2.01215830


DFT components:
N(Alpha)           :       15.000014791967 electrons
N(Beta)            :       15.000014791967 electrons
N(Total)           :       30.000029583934 electrons
E(X)               :      -18.035633254367 Eh       
E(C)               :       -1.134795108933 Eh       
E(XC)              :      -19.170428363301 Eh       
DFET-embed. en.    :        0.000000000000 Eh       

---------------
SCF CONVERGENCE
---------------

  Last Energy change         ...   -2.7853e-07  Tolerance :   1.0000e-06
  Last MAX-Density change    ...    8.8818e-16  Tolerance :   1.0000e-05
  Last RMS-Density change    ...    3.7805e-17  Tolerance :   1.0000e-06
  Last Orbital Gradient      ...    5.0944e-06  Tolerance :   5.0000e-05
  Last Orbital Rotation      ...    6.3571e-06  Tolerance :   5.0000e-05

             **** THE GBW FILE WAS UPDATED (C4H6_3d_freq.gbw) ****
             **** DENSITY C4H6_3d_freq.scfp WAS UPDATED ****
             **** ENERGY FILE WAS UPDATED (C4H6_3d_freq.en.tmp) ****
             **** THE GBW FILE WAS UPDATED (C4H6_3d_freq.gbw) ****
             **** DENSITY C4H6_3d_freq.scfp WAS UPDATED ****
----------------
ORBITAL ENERGIES
----------------

  NO   OCC          E(Eh)            E(eV) 
   0   2.0000     -10.192249      -277.3452 
   1   2.0000     -10.192161      -277.3428 
   2   2.0000     -10.185373      -277.1581 
   3   2.0000     -10.185333      -277.1570 
   4   2.0000      -0.792579       -21.5672 
   5   2.0000      -0.717458       -19.5230 
   6   2.0000      -0.610009       -16.5992 
   7   2.0000      -0.520729       -14.1698 
   8   2.0000      -0.485959       -13.2236 
   9   2.0000      -0.436512       -11.8781 
  10   2.0000      -0.420069       -11.4307 
  11   2.0000      -0.364535        -9.9195 
  12   2.0000      -0.347277        -9.4499 
  13   2.0000      -0.313942        -8.5428 
  14   2.0000      -0.236170        -6.4265 
  15   0.0000      -0.033480        -0.9110 
  16   0.0000       0.066643         1.8135 
  17   0.0000       0.078945         2.1482 
  18   0.0000       0.089119         2.4251 
  19   0.0000       0.107882         2.9356 
  20   0.0000       0.144049         3.9198 
  21   0.0000       0.158383         4.3098 
  22   0.0000       0.165798         4.5116 
  23   0.0000       0.299514         8.1502 
  24   0.0000       0.303086         8.2474 
  25   0.0000       0.382966        10.4210 
  26   0.0000       0.385246        10.4831 
  27   0.0000       0.428406        11.6575 
  28   0.0000       0.436923        11.8893 
  29   0.0000       0.438710        11.9379 
  30   0.0000       0.484192        13.1755 
  31   0.0000       0.520315        14.1585 
  32   0.0000       0.533290        14.5115 
  33   0.0000       0.541072        14.7233 
  34   0.0000       0.584274        15.8989 
  35   0.0000       0.617363        16.7993 
  36   0.0000       0.649388        17.6708 
  37   0.0000       0.656184        17.8557 
  38   0.0000       0.666995        18.1499 
  39   0.0000       0.680169        18.5083 
  40   0.0000       0.681663        18.5490 
  41   0.0000       0.701288        19.0830 
  42   0.0000       0.739153        20.1134 
  43   0.0000       0.810092        22.0437 
  44   0.0000       0.837563        22.7912 
  45   0.0000       0.901328        24.5264 
  46   0.0000       1.100722        29.9522 
  47   0.0000       1.106249        30.1026 
  48   0.0000       1.207393        32.8548 
  49   0.0000       1.212805        33.0021 
  50   0.0000       1.261699        34.3326 
  51   0.0000       1.281468        34.8705 
  52   0.0000       1.396830        38.0097 
  53   0.0000       1.576992        42.9121 
  54   0.0000       1.611983        43.8643 
  55   0.0000       1.635927        44.5158 
  56   0.0000       1.661793        45.2197 
  57   0.0000       1.683736        45.8168 
  58   0.0000       1.690297        45.9953 
  59   0.0000       1.760144        47.8960 
  60   0.0000       1.763165        47.9782 
  61   0.0000       1.777517        48.3687 
  62   0.0000       1.824636        49.6509 
  63   0.0000       1.876124        51.0519 
  64   0.0000       1.890573        51.4451 
  65   0.0000       1.974796        53.7369 
  66   0.0000       1.978875        53.8479 
  67   0.0000       2.029958        55.2380 
  68   0.0000       2.097805        57.0842 
  69   0.0000       2.135491        58.1097 
  70   0.0000       2.230381        60.6918 
  71   0.0000       2.261213        61.5307 
  72   0.0000       2.299507        62.5728 
  73   0.0000       2.371577        64.5339 
  74   0.0000       2.424914        65.9853 
  75   0.0000       2.426747        66.0352 
  76   0.0000       2.554519        69.5120 
  77   0.0000       2.583411        70.2982 
  78   0.0000       2.713670        73.8427 
  79   0.0000       2.734387        74.4065 
  80   0.0000       2.775245        75.5183 
  81   0.0000       2.870322        78.1054 
  82   0.0000       2.923124        79.5423 
  83   0.0000       3.117706        84.8371 
  84   0.0000       3.129971        85.1708 
  85   0.0000       3.425666        93.2171 

                    ********************************
                    * MULLIKEN POPULATION ANALYSIS *
                    ********************************

-----------------------
MULLIKEN ATOMIC CHARGES
-----------------------
   0 C :   -0.017422
   1 C :   -0.017477
   2 C :   -0.025480
   3 C :   -0.025394
   4 H :    0.023632
   5 H :    0.019259
   6 H :    0.000004
   7 H :   -0.000019
   8 H :    0.019098
   9 H :    0.023799
Sum of atomic charges:    0.0000000

--------------------------------
MULLIKEN REDUCED ORBITAL CHARGES
--------------------------------
  0 C s       :     3.123733  s :     3.123733
      pz      :     0.946849  p :     2.858461
      px      :     0.952226
      py      :     0.959386
      dz2     :     0.005836  d :     0.035228
      dxz     :     0.011102
      dyz     :     0.005326
      dx2y2   :     0.006226
      dxy     :     0.006738
  1 C s       :     3.123823  s :     3.123823
      pz      :     0.953148  p :     2.858428
      px      :     0.926260
      py      :     0.979020
      dz2     :     0.011077  d :     0.035226
      dxz     :     0.010089
      dyz     :     0.007129
      dx2y2   :     0.004721
      dxy     :     0.002209
  2 C s       :     3.112855  s :     3.112855
      pz      :     0.935441  p :     2.886293
      px      :     0.972607
      py      :     0.978244
      dz2     :     0.003660  d :     0.026332
      dxz     :     0.008575
      dyz     :     0.002995
      dx2y2   :     0.004989
      dxy     :     0.006114
  3 C s       :     3.112786  s :     3.112786
      pz      :     0.979921  p :     2.886279
      px      :     0.920530
      py      :     0.985828
      dz2     :     0.007607  d :     0.026329
      dxz     :     0.009451
      dyz     :     0.004548
      dx2y2   :     0.003504
      dxy     :     0.001220
  4 H s       :     0.952872  s :     0.952872
      pz      :     0.011519  p :     0.023495
      px      :     0.006623
      py      :     0.005353
  5 H s       :     0.957360  s :     0.957360
      pz      :     0.008595  p :     0.023381
      px      :     0.006352
      py      :     0.008435
  6 H s       :     0.977419  s :     0.977419
      pz      :     0.008992  p :     0.022576
      px      :     0.005644
      py      :     0.007939
  7 H s       :     0.977447  s :     0.977447
      pz      :     0.003789  p :     0.022572
      px      :     0.014394
      py      :     0.004389
  8 H s       :     0.957516  s :     0.957516
      pz      :     0.004573  p :     0.023387
      px      :     0.014230
      py      :     0.004584
  9 H s       :     0.952718  s :     0.952718
      pz      :     0.009997  p :     0.023483
      px      :     0.008243
      py      :     0.005243


                     *******************************
                     * LOEWDIN POPULATION ANALYSIS *
                     *******************************

----------------------
LOEWDIN ATOMIC CHARGES
----------------------
   0 C :   -0.034503
   1 C :   -0.034490
   2 C :   -0.040927
   3 C :   -0.040993
   4 H :    0.025373
   5 H :    0.022082
   6 H :    0.027986
   7 H :    0.027993
   8 H :    0.022026
   9 H :    0.025452

-------------------------------
LOEWDIN REDUCED ORBITAL CHARGES
-------------------------------
  0 C s       :     2.873729  s :     2.873729
      pz      :     1.015175  p :     3.070716
      px      :     1.065396
      py      :     0.990145
      dz2     :     0.014856  d :     0.090057
      dxz     :     0.030042
      dyz     :     0.012609
      dx2y2   :     0.015627
      dxy     :     0.016924
  1 C s       :     2.873769  s :     2.873769
      pz      :     1.070231  p :     3.070669
      px      :     1.038787
      py      :     0.961651
      dz2     :     0.029918  d :     0.090052
      dxz     :     0.028286
      dyz     :     0.015660
      dx2y2   :     0.011437
      dxy     :     0.004752
  2 C s       :     2.887830  s :     2.887830
      pz      :     1.024293  p :     3.084898
      px      :     1.052110
      py      :     1.008495
      dz2     :     0.010037  d :     0.068198
      dxz     :     0.022876
      dyz     :     0.007425
      dx2y2   :     0.012668
      dxy     :     0.015192
  3 C s       :     2.887865  s :     2.887865
      pz      :     1.062303  p :     3.084935
      px      :     1.046068
      py      :     0.976563
      dz2     :     0.020870  d :     0.068193
      dxz     :     0.025957
      dyz     :     0.009734
      dx2y2   :     0.008803
      dxy     :     0.002828
  4 H s       :     0.907202  s :     0.907202
      pz      :     0.033499  p :     0.067425
      px      :     0.017866
      py      :     0.016060
  5 H s       :     0.910311  s :     0.910311
      pz      :     0.025597  p :     0.067607
      px      :     0.017301
      py      :     0.024709
  6 H s       :     0.906776  s :     0.906776
      pz      :     0.026552  p :     0.065238
      px      :     0.015943
      py      :     0.022743
  7 H s       :     0.906794  s :     0.906794
      pz      :     0.011176  p :     0.065214
      px      :     0.040774
      py      :     0.013264
  8 H s       :     0.910345  s :     0.910345
      pz      :     0.011979  p :     0.067629
      px      :     0.041545
      py      :     0.014106
  9 H s       :     0.907163  s :     0.907163
      pz      :     0.027635  p :     0.067385
      px      :     0.023926
      py      :     0.015824


                      *****************************
                      * MAYER POPULATION ANALYSIS *
                      *****************************

  NA   - Mulliken gross atomic population
  ZA   - Total nuclear charge
  QA   - Mulliken gross atomic charge
  VA   - Mayer's total valence
  BVA  - Mayer's bonded valence
  FA   - Mayer's free valence

  ATOM       NA         ZA         QA         VA         BVA        FA
  0 C      6.0174     6.0000    -0.0174     4.0294     4.0294     0.0000
  1 C      6.0175     6.0000    -0.0175     4.0295     4.0295     0.0000
  2 C      6.0255     6.0000    -0.0255     3.9510     3.9510     0.0000
  3 C      6.0254     6.0000    -0.0254     3.9509     3.9509     0.0000
  4 H      0.9764     1.0000     0.0236     0.9745     0.9745    -0.0000
  5 H      0.9807     1.0000     0.0193     0.9853     0.9853     0.0000
  6 H      1.0000     1.0000     0.0000     0.9768     0.9768     0.0000
  7 H      1.0000     1.0000    -0.0000     0.9768     0.9768     0.0000
  8 H      0.9809     1.0000     0.0191     0.9853     0.9853     0.0000
  9 H      0.9762     1.0000     0.0238     0.9745     0.9745    -0.0000

  Mayer bond orders larger than 0.100000
B(  0-C ,  1-C ) :   1.0831 B(  0-C ,  2-C ) :   1.9612 B(  0-C ,  6-H ) :   0.9546 
B(  1-C ,  3-C ) :   1.9613 B(  1-C ,  7-H ) :   0.9545 B(  2-C ,  4-H ) :   0.9487 
B(  2-C ,  5-H ) :   0.9526 B(  3-C ,  8-H ) :   0.9525 B(  3-C ,  9-H ) :   0.9487 


-------
TIMINGS
-------

Total SCF time: 0 days 0 hours 0 min 10 sec 

Total time                  ....      10.503 sec
Sum of individual times     ....      10.443 sec  ( 99.4%)

Fock matrix formation       ....       9.899 sec  ( 94.2%)
  Split-RI-J                ....       0.656 sec  (  6.6% of F)
  Chain of spheres X        ....       7.267 sec  ( 73.4% of F)
  XC integration            ....       1.964 sec  ( 19.8% of F)
    Basis function eval.    ....       0.767 sec  ( 39.0% of XC)
    Density eval.           ....       0.461 sec  ( 23.5% of XC)
    XC-Functional eval.     ....       0.196 sec  ( 10.0% of XC)
    XC-Potential eval.      ....       0.462 sec  ( 23.5% of XC)
Diagonalization             ....       0.012 sec  (  0.1%)
Density matrix formation    ....       0.001 sec  (  0.0%)
Population analysis         ....       0.001 sec  (  0.0%)
Initial guess               ....       0.068 sec  (  0.6%)
Orbital Transformation      ....       0.000 sec  (  0.0%)
Orbital Orthonormalization  ....       0.000 sec  (  0.0%)
DIIS solution               ....       0.002 sec  (  0.0%)
SOSCF solution              ....       0.002 sec  (  0.0%)
Grid generation             ....       0.459 sec  (  4.4%)

Maximum memory used throughout the entire SCF-calculation: 51.4 MB

-------------------------   --------------------
FINAL SINGLE POINT ENERGY      -155.766373407085
-------------------------   --------------------


                            ***************************************
                            *     ORCA property calculations      *
                            ***************************************

                                    ---------------------
                                    Active property flags
                                    ---------------------
   (+) Dipole Moment


------------------------------------------------------------------------------
                       ORCA ELECTRIC PROPERTIES CALCULATION
------------------------------------------------------------------------------

Dipole Moment Calculation                       ... on
Quadrupole Moment Calculation                   ... off
Polarizability Calculation                      ... off
GBWName                                         ... C4H6_3d_freq.gbw
Electron density                                ... C4H6_3d_freq.scfp
The origin for moment calculation is the CENTER OF MASS  = (-1.600300, -0.761533 -1.287324)

-------------
DIPOLE MOMENT
-------------
                                X             Y             Z
Electronic contribution:     -0.63156      -0.28003      -0.36432
Nuclear contribution   :      0.60123       0.26668       0.34664
                        -----------------------------------------
Total Dipole Moment    :     -0.03033      -0.01335      -0.01768
                        -----------------------------------------
Magnitude (a.u.)       :      0.03756
Magnitude (Debye)      :      0.09546



--------------------
Rotational spectrum 
--------------------
 
Rotational constants in cm-1:     0.715102     0.185464     0.149432 
Rotational constants in MHz : 21438.218451  5560.066142  4479.852541 

 Dipole components along the rotational axes: 
x,y,z [a.u.] :    -0.000167     0.037557    -0.000133 
x,y,z [Debye]:    -0.000424     0.095462    -0.000338 

 

-------------------------------------------------------------------------------
                               ORCA SCF HESSIAN
-------------------------------------------------------------------------------

                   --------- SHARK INITIALIZATION DONE ---------

Hessian of the Kohn-Sham DFT energy:
Kohn-Sham wavefunction type                      ... RKS
Hartree-Fock exchange scaling                    ...    0.200
Number of operators                              ...    1
Number of atoms                                  ...   10
Basis set dimensions                             ...   86
Integral neglect threshold                       ... 1.0e-10
Integral primitive cutoff                        ... 1.0e-11

Setting up DFT Hessian calculations              ... 

HESS GRID
---------

General Integration Accuracy     IntAcc      ... 4.629
Radial Grid Type                 RadialGrid  ... OptM3 with GC (2021)
Angular Grid (max. ang.)         AngularGrid ... 5 (Lebedev-434)
Angular grid pruning method      GridPruning ... 4 (adaptive)
Weight generation scheme         WeightScheme... Becke
Basis function cutoff            BFCut       ... 1.0000e-10
Integration weight cutoff        WCut        ... 1.0000e-14
Angular grids for H and He will be reduced by one unit
Partially contracted basis set               ... off
Rotationally invariant grid construction     ... off

Total number of grid points                  ...    68203
Total number of batches                      ...     1070
Average number of points per batch           ...       63
Average number of grid points per atom       ...     6820

Building densities                               ... done   (      0.0 sec)
Calculating rho(r) on the grid                   ... done   (      0.2 sec)
Building xc-kernel on the grid                   ... done   (      0.1 sec)
                                                     done   (      0.7 sec)

Nuclear repulsion Hessian  (SHARK)               ... done   (      0.0 sec)

----------------------------------------------
Forming right-hand sides of CP-SCF equations     ...
----------------------------------------------
One electron integral derivatives  (SHARK)       ... done   (      0.0 sec)
Transforming the overlap derivative matrices     ... done   (      0.0 sec)
Making the Q(x) pseudodensities                  ... done   (      0.0 sec)
Adding the E*S(x)*S(y) terms to the Hessian      ... done   (      0.0 sec)
Calculating energy weighted overlap derivatives  ... done   (      0.0 sec)
Two electron integral derivatives (SHARK-RI)     ... done   (      1.9 sec)
Exchange-correlation integral derivatives        ... done   (     13.3 sec)
tr(F(y)Q(x)) contribution to the Hessian         ... done   (      0.0 sec)
Response fock operator R(S(x)) (SHARK-RIJCOSX)   ... done   (      1.8 sec)
XC Response fock operator R(S(x))                ... done   (      4.2 sec)
tr(F(y)S(x)) contribution to the Hessian         ... done   (      0.0 sec)
Transforming and finalizing RHSs                 ... done   (      0.0 sec)

----------------------------------------------
Solving the CP-SCF equations (RIJCOSX)           ...
----------------------------------------------
     CP-SCF ITERATION   0:   2.9810e-01 (   1.3 sec   0/ 30 done)
     CP-SCF ITERATION   1:   4.0595e-02 (   1.3 sec   0/ 30 done)
     CP-SCF ITERATION   2:   1.0725e-02 (   1.2 sec   2/ 30 done)
     CP-SCF ITERATION   3:   3.4922e-03 (   1.2 sec   8/ 30 done)
     CP-SCF ITERATION   4:   1.4684e-03 (   1.1 sec  28/ 30 done)
     CP-SCF ITERATION   5:   3.0681e-04 (   0.5 sec  30/ 30 done)
                    *** THE CP-SCF HAS CONVERGED ***

                                                 ... done   (      6.7 sec)
Forming perturbed density Hessian contributions  ... done   (      0.0 sec)
2nd integral derivative contribs (SHARK-RI)      ... done   (     10.6 sec)
Exchange-correlation Hessian                     ... done   (     13.1 sec)
Dipole derivatives                               ... (center of mass: -1.600300, -0.761533 -1.287324)done   (      0.1 sec)

Total SCF Hessian time: 0 days 0 hours 0 min 52 sec 

Writing the Hessian file to the disk             ... done


Maximum memory used throughout the entire SCFHESS-calculation: 75.8 MB

-----------------------
VIBRATIONAL FREQUENCIES
-----------------------

Scaling factor for frequencies =  1.000000000  (already applied!)

   0:         0.00 cm**-1
   1:         0.00 cm**-1
   2:         0.00 cm**-1
   3:         0.00 cm**-1
   4:         0.00 cm**-1
   5:         0.00 cm**-1
   6:       137.16 cm**-1
   7:       276.58 cm**-1
   8:       483.86 cm**-1
   9:       603.99 cm**-1
  10:       753.50 cm**-1
  11:       884.72 cm**-1
  12:       937.55 cm**-1
  13:       938.96 cm**-1
  14:      1023.13 cm**-1
  15:      1029.93 cm**-1
  16:      1060.00 cm**-1
  17:      1095.23 cm**-1
  18:      1296.47 cm**-1
  19:      1331.59 cm**-1
  20:      1413.98 cm**-1
  21:      1444.62 cm**-1
  22:      1685.43 cm**-1
  23:      1703.14 cm**-1
  24:      3126.79 cm**-1
  25:      3133.09 cm**-1
  26:      3136.46 cm**-1
  27:      3145.23 cm**-1
  28:      3230.81 cm**-1
  29:      3232.54 cm**-1


------------
NORMAL MODES
------------

These modes are the Cartesian displacements weighted by the diagonal matrix
M(i,i)=1/sqrt(m[i]) where m[i] is the mass of the displaced atom
Thus, these vectors are normalized but *not* orthogonal

                  0          1          2          3          4          5    
      0       0.000000   0.000000   0.000000   0.000000   0.000000   0.000000
      1       0.000000   0.000000   0.000000   0.000000   0.000000   0.000000
      2       0.000000   0.000000   0.000000   0.000000   0.000000   0.000000
      3       0.000000   0.000000   0.000000   0.000000   0.000000   0.000000
      4       0.000000   0.000000   0.000000   0.000000   0.000000   0.000000
      5       0.000000   0.000000   0.000000   0.000000   0.000000   0.000000
      6       0.000000   0.000000   0.000000   0.000000   0.000000   0.000000
      7       0.000000   0.000000   0.000000   0.000000   0.000000   0.000000
      8       0.000000   0.000000   0.000000   0.000000   0.000000   0.000000
      9       0.000000   0.000000   0.000000   0.000000   0.000000   0.000000
     10       0.000000   0.000000   0.000000   0.000000   0.000000   0.000000
     11       0.000000   0.000000   0.000000   0.000000   0.000000   0.000000
     12       0.000000   0.000000   0.000000   0.000000   0.000000   0.000000
     13       0.000000   0.000000   0.000000   0.000000   0.000000   0.000000
     14       0.000000   0.000000   0.000000   0.000000   0.000000   0.000000
     15       0.000000   0.000000   0.000000   0.000000   0.000000   0.000000
     16       0.000000   0.000000   0.000000   0.000000   0.000000   0.000000
     17       0.000000   0.000000   0.000000   0.000000   0.000000   0.000000
     18       0.000000   0.000000   0.000000   0.000000   0.000000   0.000000
     19       0.000000   0.000000   0.000000   0.000000   0.000000   0.000000
     20       0.000000   0.000000   0.000000   0.000000   0.000000   0.000000
     21       0.000000   0.000000   0.000000   0.000000   0.000000   0.000000
     22       0.000000   0.000000   0.000000   0.000000   0.000000   0.000000
     23       0.000000   0.000000   0.000000   0.000000   0.000000   0.000000
     24       0.000000   0.000000   0.000000   0.000000   0.000000   0.000000
     25       0.000000   0.000000   0.000000   0.000000   0.000000   0.000000
     26       0.000000   0.000000   0.000000   0.000000   0.000000   0.000000
     27       0.000000   0.000000   0.000000   0.000000   0.000000   0.000000
     28       0.000000   0.000000   0.000000   0.000000   0.000000   0.000000
     29       0.000000   0.000000   0.000000   0.000000   0.000000   0.000000
                  6          7          8          9         10         11    
      0      -0.043069   0.078811   0.004877   0.074673   0.051076  -0.042027
      1       0.102696   0.048699   0.097349   0.017712  -0.139404   0.053197
      2      -0.055981   0.036376   0.045173   0.151406   0.075563   0.141637
      3       0.003886   0.079394  -0.092154  -0.147517  -0.008446   0.125213
      4      -0.119832   0.021788   0.054504  -0.080974   0.158475  -0.016826
      5       0.033443   0.055106  -0.010893   0.023288  -0.050709  -0.094003
      6       0.035895   0.061428   0.043595   0.054543  -0.024218  -0.090896
      7      -0.063562  -0.041630  -0.028921   0.028562  -0.002999   0.007178
      8       0.037710  -0.231475  -0.010241  -0.031124   0.008618   0.106033
      9       0.002762  -0.179738   0.011629  -0.009634  -0.002589   0.055839
     10       0.080505  -0.010978  -0.043571   0.000169  -0.009332  -0.022172
     11      -0.015482   0.163068  -0.029494  -0.068460  -0.024265  -0.126013
     12      -0.054409  -0.195043   0.080377  -0.332732  -0.197104  -0.517732
     13       0.100102  -0.110848  -0.469109   0.117240   0.518409  -0.243531
     14      -0.067006  -0.362671   0.150830  -0.291372  -0.257115  -0.061283
     15       0.207246   0.299527   0.055774   0.409065   0.025733   0.230565
     16      -0.377451  -0.079868   0.235003  -0.128841  -0.223913   0.074818
     17       0.214848  -0.371411  -0.275892  -0.143973   0.186126  -0.213324
     18      -0.156016  -0.047126   0.138280   0.080311  -0.090378  -0.020281
     19       0.392385   0.071782  -0.202373   0.213481   0.067336   0.104985
     20      -0.222428   0.093985   0.206673  -0.017793  -0.002399   0.095735
     21       0.011540   0.097438  -0.081349  -0.135252   0.009009   0.127315
     22      -0.457029  -0.050476  -0.298587   0.117284  -0.102930  -0.055996
     23       0.139138  -0.064533   0.079936  -0.141261  -0.044431  -0.034979
     24       0.007267  -0.233522   0.055150   0.057205   0.018632  -0.046522
     25       0.473463   0.109820   0.233832  -0.285507   0.245072   0.006170
     26      -0.091459   0.407294  -0.277077  -0.346610  -0.161361   0.320217
     27      -0.009351  -0.396652   0.133695   0.254255   0.045573  -0.346834
     28      -0.129168  -0.153446  -0.444408   0.377807  -0.584288  -0.141167
     29       0.030598   0.022384   0.180528   0.046025   0.169466  -0.435884
                 12         13         14         15         16         17    
      0       0.017909  -0.012190  -0.021654   0.020485   0.013687  -0.019199
      1      -0.039064   0.025891   0.041036  -0.054261  -0.104509  -0.034499
      2       0.030911  -0.013106  -0.060646   0.023117  -0.079567  -0.104996
      3       0.006447   0.000062  -0.028707   0.006379  -0.115524   0.105904
      4       0.043432   0.038023  -0.062272  -0.060922   0.059726   0.020257
      5      -0.015534  -0.009699   0.031370   0.016560   0.019983  -0.033479
      6      -0.059845   0.040069   0.010191  -0.008559   0.035394  -0.051794
      7       0.103854  -0.087224  -0.000494   0.012079   0.044884   0.030286
      8      -0.052154   0.050226   0.025625   0.000509   0.033099   0.103351
      9       0.002174   0.000779   0.022197  -0.004102   0.061375  -0.080045
     10      -0.109127  -0.125099   0.014804   0.014427  -0.001910   0.018206
     11       0.014163   0.029931  -0.007040   0.002873   0.023718   0.087322
     12       0.133907  -0.148761  -0.174063   0.072585  -0.155257  -0.443512
     13      -0.378059   0.344738   0.143581  -0.230362  -0.137284  -0.233558
     14       0.215975  -0.198329  -0.131077   0.124681  -0.030699  -0.043511
     15       0.244193  -0.190591   0.204619  -0.096329   0.286079   0.294539
     16      -0.468191   0.369703  -0.181054   0.250205   0.106136   0.035633
     17       0.278332  -0.223116   0.054353  -0.166095  -0.215093  -0.176655
     18       0.012799  -0.010247   0.318069  -0.169434   0.265008   0.217313
     19      -0.031929   0.007278  -0.481087   0.455490   0.144428  -0.093449
     20       0.029498   0.000904   0.154680  -0.281777  -0.453063  -0.202151
     21       0.007988  -0.000078  -0.064139  -0.001681  -0.174865   0.140901
     22       0.040603   0.019766   0.583505   0.540993  -0.109851  -0.127833
     23      -0.019482   0.002077  -0.005210  -0.180957   0.503198  -0.250922
     24       0.011458   0.014746  -0.001009   0.009971  -0.012321   0.021958
     25       0.494977   0.550986   0.264555   0.300386   0.013321  -0.086193
     26      -0.110113  -0.125494   0.064909  -0.101998   0.371811  -0.338344
     27      -0.013377  -0.007277  -0.069302   0.015648  -0.148253   0.306609
     28       0.353376   0.475913  -0.246968  -0.260059   0.004804   0.097278
     29      -0.124751  -0.139432  -0.010275   0.093077  -0.143190   0.389628
                 18         19         20         21         22         23    
      0      -0.029388  -0.036863  -0.069172  -0.065742  -0.306896  -0.260593
      1      -0.043345  -0.043434  -0.013118   0.008379  -0.054822  -0.077961
      2      -0.035856  -0.051933   0.018002   0.071113   0.162752   0.047833
      3       0.060830  -0.075958   0.015499   0.038069  -0.002784   0.089494
      4      -0.003188  -0.006550   0.024151  -0.020827  -0.081818   0.077745
      5       0.016410  -0.013324   0.066008  -0.087698  -0.339028   0.252260
      6       0.061691   0.049734  -0.029475  -0.038061   0.260798   0.229994
      7       0.047878   0.045419  -0.015905  -0.023809   0.085295   0.078670
      8       0.032496   0.036843  -0.003726  -0.012404  -0.069273  -0.047521
      9      -0.070987   0.069638   0.021047  -0.035188   0.076926  -0.081359
     10      -0.010964   0.007431   0.006424  -0.008531   0.063977  -0.059464
     11      -0.043988   0.032049   0.025194  -0.029807   0.261904  -0.228640
     12       0.060031   0.053888   0.385947   0.418277  -0.103707  -0.118030
     13       0.042419   0.040264   0.258352   0.292262  -0.155756  -0.202232
     14       0.021853   0.028072   0.139630   0.145309  -0.244900  -0.206164
     15       0.301867   0.317436   0.333485   0.306609  -0.188665  -0.150385
     16       0.059598   0.054745  -0.004289  -0.016802   0.054912   0.101055
     17      -0.149019  -0.162286  -0.267381  -0.261385   0.352713   0.270706
     18      -0.528010  -0.517881   0.222577   0.179687   0.132547   0.231912
     19      -0.059662  -0.084140  -0.010406   0.014856  -0.077358  -0.086977
     20       0.291960   0.275177  -0.174124  -0.085004  -0.139675  -0.305369
     21      -0.022899  -0.001183   0.068663  -0.000740  -0.107072   0.210086
     22       0.163375  -0.145844  -0.078480   0.065227   0.086152  -0.097835
     23       0.581618  -0.575489  -0.262700   0.191242   0.149738  -0.320468
     24      -0.015201   0.007166   0.100148  -0.113117   0.237199  -0.218320
     25      -0.080397   0.089643  -0.106035   0.103650  -0.031902   0.072266
     26      -0.330597   0.351691  -0.396468   0.376454  -0.320728   0.235659
     27      -0.059672   0.062511  -0.370839   0.411838  -0.304452   0.312405
     28      -0.010722   0.011183  -0.077642   0.074467  -0.026562  -0.012547
     29      -0.047171   0.039510  -0.295806   0.333964   0.007973   0.040468
                 24         25         26         27         28         29    
      0      -0.023527  -0.012410   0.015571   0.026897   0.002609  -0.003716
      1      -0.029813  -0.019319   0.013517   0.031196   0.002764  -0.004551
      2      -0.035262  -0.025584   0.011819   0.035153   0.002775  -0.005321
      3       0.057042  -0.028102  -0.022904   0.049916  -0.007359  -0.004912
      4       0.003589  -0.001017  -0.003064   0.003922  -0.000556  -0.000290
      5       0.008315  -0.000533  -0.009938   0.010164  -0.001631  -0.000485
      6      -0.011925  -0.036678  -0.042278  -0.027703  -0.004190   0.006279
      7      -0.002778  -0.014045  -0.019532  -0.014847   0.025438  -0.041453
      8       0.005309   0.006673   0.001913  -0.001613   0.045220  -0.073188
      9       0.001852  -0.012850   0.022646  -0.016838  -0.077634  -0.048156
     10       0.003933  -0.008124   0.009878  -0.005473   0.009829   0.006011
     11       0.016383  -0.033969   0.041529  -0.024392   0.031509   0.019159
     12       0.088800   0.201021   0.186701   0.101312   0.200066  -0.319757
     13      -0.051500  -0.116454  -0.108470  -0.057507  -0.106103   0.169988
     14      -0.155028  -0.354168  -0.331654  -0.178277  -0.335257   0.537683
     15       0.062423   0.204465   0.238906   0.158236  -0.157482   0.258848
     16       0.085429   0.273445   0.316210   0.208749  -0.201767   0.331992
     17       0.088397   0.283347   0.328229   0.217077  -0.205270   0.336124
     18       0.273069   0.183209  -0.106847  -0.263275  -0.021452   0.035080
     19       0.355522   0.240206  -0.135959  -0.343664  -0.027942   0.044795
     20       0.425607   0.290213  -0.160511  -0.417332  -0.032445   0.053808
     21      -0.681077   0.340038   0.247364  -0.560425   0.075652   0.047835
     22      -0.040629   0.020226   0.015437  -0.034677   0.004386   0.003362
     23      -0.093152   0.044139   0.037114  -0.072557   0.011110   0.006512
     24      -0.170839   0.400371  -0.516193   0.316045   0.534580   0.334800
     25      -0.002965   0.009142  -0.013374   0.008578   0.016221   0.009754
     26      -0.032399   0.078396  -0.102223   0.062690   0.117096   0.073970
     27       0.148300  -0.256217   0.271372  -0.136437   0.400231   0.245000
     28      -0.047128   0.079916  -0.083358   0.042192  -0.131332  -0.079888
     29      -0.170813   0.294540  -0.311020   0.158292  -0.483141  -0.295116


-----------
IR SPECTRUM
-----------

 Mode   freq       eps      Int      T**2         TX        TY        TZ
       cm**-1   L/(mol*cm) km/mol    a.u.
----------------------------------------------------------------------------
  6:    137.16   0.000063    0.32  0.000143  ( 0.009381  0.004762  0.005647)
  7:    276.58   0.000000    0.00  0.000000  ( 0.000120  0.000080  0.000244)
  8:    483.86   0.002310   11.67  0.001490  (-0.001477 -0.029246  0.025149)
  9:    603.99   0.001189    6.01  0.000614  (-0.010860  0.022218  0.001697)
 10:    753.50   0.000390    1.97  0.000162  (-0.010362 -0.004333 -0.005950)
 11:    884.72   0.000065    0.33  0.000023  (-0.003880 -0.001732 -0.002222)
 12:    937.55   0.000682    3.45  0.000227  ( 0.012177 -0.000034  0.008880)
 13:    938.96   0.013438   67.91  0.004466  (-0.007995  0.059600 -0.029154)
 14:   1023.13   0.000162    0.82  0.000049  ( 0.005885  0.001944  0.003314)
 15:   1029.93   0.004126   20.85  0.001250  (-0.004773  0.031486 -0.015363)
 16:   1060.00   0.000000    0.00  0.000000  ( 0.000138 -0.000001  0.000022)
 17:   1095.23   0.001245    6.29  0.000355  ( 0.010711 -0.005124 -0.014618)
 18:   1296.47   0.000046    0.23  0.000011  ( 0.000722  0.002181 -0.002431)
 19:   1331.59   0.000088    0.45  0.000021  ( 0.003476  0.001727  0.002373)
 20:   1413.98   0.000526    2.66  0.000116  ( 0.005422  0.000380 -0.009307)
 21:   1444.62   0.001483    7.50  0.000320  ( 0.014485  0.006381  0.008362)
 22:   1685.43   0.000368    1.86  0.000068  (-0.006646 -0.002985 -0.003892)
 23:   1703.14   0.000438    2.21  0.000080  (-0.003408 -0.002504  0.007892)
 24:   3126.79   0.001463    7.39  0.000146  ( 0.008200 -0.005607 -0.006880)
 25:   3133.09   0.004036   20.40  0.000402  (-0.015755 -0.007644 -0.009764)
 26:   3136.46   0.001147    5.80  0.000114  (-0.005546  0.000400  0.009121)
 27:   3145.23   0.001095    5.53  0.000109  ( 0.008217  0.003827  0.005147)
 28:   3230.81   0.002233   11.29  0.000216  (-0.010378  0.004855  0.009191)
 29:   3232.54   0.001018    5.15  0.000098  (-0.005585 -0.004650 -0.006745)

* The epsilon (eps) is given for a Dirac delta lineshape.
** The dipole moment derivative (T) already includes vibrational overlap.

The first frequency considered to be a vibration is 6
The total number of vibrations considered is 24


--------------------------
THERMOCHEMISTRY AT 298.15K
--------------------------

Temperature         ... 298.15 K
Pressure            ... 1.00 atm
Total Mass          ... 54.09 AMU

Throughout the following assumptions are being made:
  (1) The electronic state is orbitally nondegenerate
  (2) There are no thermally accessible electronically excited states
  (3) Hindered rotations indicated by low frequency modes are not
      treated as such but are treated as vibrations and this may
      cause some error
  (4) All equations used are the standard statistical mechanics
      equations for an ideal gas
  (5) All vibrations are strictly harmonic

freq.     137.16  E(vib)   ...       0.42 
freq.     276.58  E(vib)   ...       0.28 
freq.     483.86  E(vib)   ...       0.15 
freq.     603.99  E(vib)   ...       0.10 
freq.     753.50  E(vib)   ...       0.06 
freq.     884.72  E(vib)   ...       0.04 
freq.     937.55  E(vib)   ...       0.03 
freq.     938.96  E(vib)   ...       0.03 
freq.    1023.13  E(vib)   ...       0.02 
freq.    1029.93  E(vib)   ...       0.02 
freq.    1060.00  E(vib)   ...       0.02 
freq.    1095.23  E(vib)   ...       0.02 
freq.    1296.47  E(vib)   ...       0.01 
freq.    1331.59  E(vib)   ...       0.01 
freq.    1413.98  E(vib)   ...       0.00 
freq.    1444.62  E(vib)   ...       0.00 
freq.    1685.43  E(vib)   ...       0.00 
freq.    1703.14  E(vib)   ...       0.00 
freq.    3126.79  E(vib)   ...       0.00 
freq.    3133.09  E(vib)   ...       0.00 
freq.    3136.46  E(vib)   ...       0.00 
freq.    3145.23  E(vib)   ...       0.00 
freq.    3230.81  E(vib)   ...       0.00 
freq.    3232.54  E(vib)   ...       0.00 

------------
INNER ENERGY
------------

The inner energy is: U= E(el) + E(ZPE) + E(vib) + E(rot) + E(trans)
    E(el)   - is the total energy from the electronic structure calculation
              = E(kin-el) + E(nuc-el) + E(el-el) + E(nuc-nuc)
    E(ZPE)  - the the zero temperature vibrational energy from the frequency calculation
    E(vib)  - the the finite temperature correction to E(ZPE) due to population
              of excited vibrational states
    E(rot)  - is the rotational thermal energy
    E(trans)- is the translational thermal energy

Summary of contributions to the inner energy U:
Electronic energy                ...   -155.76637341 Eh
Zero point energy                ...      0.08453083 Eh      53.04 kcal/mol
Thermal vibrational correction   ...      0.00191377 Eh       1.20 kcal/mol
Thermal rotational correction    ...      0.00141627 Eh       0.89 kcal/mol
Thermal translational correction ...      0.00141627 Eh       0.89 kcal/mol
-----------------------------------------------------------------------
Total thermal energy                   -155.67709627 Eh


Summary of corrections to the electronic energy:
(perhaps to be used in another calculation)
Total thermal correction                  0.00474631 Eh       2.98 kcal/mol
Non-thermal (ZPE) correction              0.08453083 Eh      53.04 kcal/mol
-----------------------------------------------------------------------
Total correction                          0.08927714 Eh      56.02 kcal/mol


--------
ENTHALPY
--------

The enthalpy is H = U + kB*T
                kB is Boltzmann's constant
Total free energy                 ...   -155.67709627 Eh 
Thermal Enthalpy correction       ...      0.00094421 Eh       0.59 kcal/mol
-----------------------------------------------------------------------
Total Enthalpy                    ...   -155.67615206 Eh


Note: Only C1 symmetry has been detected, increase convergence thresholds 
      if your molecule has a higher symmetry. Symmetry factor of 1.0 is   
      used for the rotational entropy correction. 
 

Note: Rotational entropy computed according to Herzberg 
Infrared and Raman Spectra, Chapter V,1, Van Nostrand Reinhold, 1945 
Point Group:  C1, Symmetry Number:   1  
Rotational constants in cm-1:     0.715102     0.185464     0.149432 

Vibrational entropy computed according to the QRRHO of S. Grimme
Chem.Eur.J. 2012 18 9955


-------
ENTROPY
-------

The entropy contributions are T*S = T*(S(el)+S(vib)+S(rot)+S(trans))
     S(el)   - electronic entropy
     S(vib)  - vibrational entropy
     S(rot)  - rotational entropy
     S(trans)- translational entropy
The entropies will be listed as multiplied by the temperature to get
units of energy

Electronic entropy                ...      0.00000000 Eh      0.00 kcal/mol
Vibrational entropy               ...      0.00309631 Eh      1.94 kcal/mol
Rotational entropy                ...      0.01136194 Eh      7.13 kcal/mol
Translational entropy             ...      0.01800097 Eh     11.30 kcal/mol
-----------------------------------------------------------------------
Final entropy term                ...      0.03245922 Eh     20.37 kcal/mol

In case the symmetry of your molecule has not been determined correctly
or in case you have a reason to use a different symmetry number we print 
out the resulting rotational entropy values for sn=1,12 :
 --------------------------------------------------------
|  sn= 1 | S(rot)=       0.01136194 Eh      7.13 kcal/mol|
|  sn= 2 | S(rot)=       0.01070749 Eh      6.72 kcal/mol|
|  sn= 3 | S(rot)=       0.01032465 Eh      6.48 kcal/mol|
|  sn= 4 | S(rot)=       0.01005303 Eh      6.31 kcal/mol|
|  sn= 5 | S(rot)=       0.00984234 Eh      6.18 kcal/mol|
|  sn= 6 | S(rot)=       0.00967020 Eh      6.07 kcal/mol|
|  sn= 7 | S(rot)=       0.00952465 Eh      5.98 kcal/mol|
|  sn= 8 | S(rot)=       0.00939857 Eh      5.90 kcal/mol|
|  sn= 9 | S(rot)=       0.00928737 Eh      5.83 kcal/mol|
|  sn=10 | S(rot)=       0.00918789 Eh      5.77 kcal/mol|
|  sn=11 | S(rot)=       0.00909790 Eh      5.71 kcal/mol|
|  sn=12 | S(rot)=       0.00901574 Eh      5.66 kcal/mol|
 --------------------------------------------------------


-------------------
GIBBS FREE ENERGY
-------------------

The Gibbs free energy is G = H - T*S

Total enthalpy                    ...   -155.67615206 Eh 
Total entropy correction          ...     -0.03245922 Eh    -20.37 kcal/mol
-----------------------------------------------------------------------
Final Gibbs free energy         ...   -155.70861128 Eh

For completeness - the Gibbs free energy minus the electronic energy
G-E(el)                           ...      0.05776213 Eh     36.25 kcal/mol


Timings for individual modules:

Sum of individual times         ...       63.295 sec (=   1.055 min)
GTO integral calculation        ...        0.087 sec (=   0.001 min)   0.1 %
SCF iterations                  ...       10.512 sec (=   0.175 min)  16.6 %
Analytical frequency calculation...       52.697 sec (=   0.878 min)  83.3 %
                             ****ORCA TERMINATED NORMALLY****
TOTAL RUN TIME: 0 days 0 hours 1 minutes 3 seconds 374 msec
